LAMMPS (10 Feb 2015)
Read molecule SQL:
  30 atoms with 4 types
  29 bonds with 1 types
  34 angles with 1 types
  31 dihedrals with 2 types
  6 impropers with 1 types
Reading restart file ...
  restart file = 10 Feb 2015, LAMMPS = 10 Feb 2015
  triclinic box = (112.837 112.837 112.837) to (157.163 157.163 157.163) with tilt (-1.81899e-12 0 0)
  3 by 4 by 4 MPI processor grid
  3750 atoms
  3625 bonds
  4250 angles
  3875 dihedrals
  750 impropers
250 atoms in group endatoms
60 atoms in group samplechains
Resetting global state of Fix shear1 Style nvt/sllod from restart file info
Neighbor list info ...
  1 neighbor list requests
  update every 1 steps, delay 0 steps, check yes
  master list distance cutoff = 10.3
Setting up run ...
Memory usage per processor = 4.71052 Mbytes
Step dummytim Temp Volume Press Density PotEng TotEng Pxx Pyy Pzz Pxy Pyz Pxz myT 
410000000      4.1e+08    290.35552    87095.841    8720.2414      1.00761   -866.03157    2378.7079    8447.8217    9277.9079    8434.9947   -173.25137   -227.36758   -307.73523    290.35639 
410010000   4.1001e+08     287.5752    87095.841    9543.6588      1.00761   -935.58093    2278.0882    9489.3776    9522.6815    9618.9174   -1698.0432    31.250441    770.12238    287.57597 
410020000   4.1002e+08    295.76521    87095.841    9209.0793      1.00761   -825.77666    2479.4164    8153.6729    9099.1126    10374.452   -1289.5225   -521.08213    111.73053    295.76863 
410030000   4.1003e+08    287.15554    87095.841    9864.2369      1.00761    -825.8579    2383.1216    10053.401    10933.801    8605.5085     -618.218   -832.74969    855.75028    287.15412 
410040000   4.1004e+08    293.47934    87095.841    9338.9412      1.00761   -848.31197    2431.3363     8326.553    10744.896    8945.3743   -700.77504     93.99452     231.7798    293.47509 
410050000   4.1005e+08    293.29541    87095.841    9584.1733      1.00761   -838.35923    2439.2336    8837.1335    9876.0758     10039.31   -996.07123   -71.326991    606.63975    293.29777 
410060000   4.1006e+08    295.53733    87095.841    8960.7575      1.00761   -897.65495    2404.9915    8653.3831    10126.171    8102.7181   -883.44712    212.74052   -391.55624    295.53623 
410070000   4.1007e+08    289.57838    87095.841    7966.8833      1.00761   -876.67267    2359.3822    8246.2637    8877.3859    6777.0002   -1573.0672   -278.45599    194.97926    289.57932 
410080000   4.1008e+08    286.95332    87095.841    9072.4511      1.00761   -844.77238    2361.9473    7019.1117    10558.397    9639.8444   -1434.0705    640.13543    366.92526    286.95527 
410090000   4.1009e+08    297.95131    87095.841    9542.4736      1.00761   -787.15202    2542.4708    8215.7451     11055.39    9356.2854   -515.98628   -186.15601   -1222.7444    297.94887 
410100000    4.101e+08    296.63651    87095.841    9453.5335      1.00761   -829.63838    2485.2915    8490.4822    9881.8719    9988.2464   -1967.9538    73.555185   -248.85125    296.63982 
410110000   4.1011e+08    293.44485    87095.841    9067.9065      1.00761   -811.15969    2468.1032    7352.7988    10294.522    9556.3989   -839.26037    724.73108    369.40801    293.44687 
410120000   4.1012e+08     286.4031    87095.841    9307.6851      1.00761   -837.53758    2363.0334    6719.4504    10380.254    10823.351   -874.81777   -178.26323   -280.77612    286.40151 
410130000   4.1013e+08    290.10315    87095.841     9679.509      1.00761     -822.876    2419.0432    9656.7787    9684.5793    9697.1691   -1217.0636    585.38634   -98.249072    290.10559 
410140000   4.1014e+08    292.67799    87095.841    9070.3712      1.00761   -854.07545    2416.6177    8719.5288    9584.1455    8907.4392   -1466.6482   -103.01823    124.13327    292.67715 
410150000   4.1015e+08    293.07477    87095.841    8992.2813      1.00761   -819.45809    2455.6692    8019.2392    10256.264    8701.3405   -1168.8518   -529.60894    188.18182    293.07591 
410160000   4.1016e+08    303.15296    87095.841    9328.8446      1.00761   -860.91913    2526.8324     7442.242    9761.2319     10783.06    -1190.198    872.35366    77.671154    303.15215 
410170000   4.1017e+08    290.19941    87095.841    8595.5911      1.00761   -807.27077    2435.7241    7278.6527    9261.7148    9246.4057   -1849.5609   -427.50549     712.8092    290.19911 
410180000   4.1018e+08    288.05485    87095.841    9641.9219      1.00761   -809.46886    2409.5605      9226.48    9782.0897    9917.1961    -1554.309    884.73497    -933.4855    288.05268 
410190000   4.1019e+08     298.1028    87095.841    9361.2415      1.00761   -759.68019    2571.6355    7992.8816     9767.569    10323.274   -652.00746   -574.13126    166.10937    298.10395 
410200000    4.102e+08    290.14182    87095.841    9661.5213      1.00761    -816.7654    2425.5859    9031.5806    9887.9631     10065.02   -1555.8998     57.65983    23.063347    290.13965 
410210000   4.1021e+08    292.68111    87095.841    10512.449      1.00761   -802.76082    2467.9672    8913.2097    10700.538    11923.599   -694.26422    443.22161   -314.51991    292.68138 
410220000   4.1022e+08    292.61389    87095.841    10427.936      1.00761   -824.60796    2445.3689    9461.7692     11668.24    10153.799   -861.23195    249.30906   -27.319756    292.61487 
410230000   4.1023e+08    288.65118    87095.841    8761.6448      1.00761   -758.99238     2466.701    8385.9594    9852.0388    8046.9363    -525.2303   -272.80066    510.85421    288.65007 
410240000   4.1024e+08     292.6092    87095.841    9591.0273      1.00761   -830.01064    2439.9138    8576.2328    10669.117    9527.7326   -775.56897    512.46727   -143.08589    292.60774 
410250000   4.1025e+08    290.43632    87095.841    8407.3019      1.00761   -764.90863    2480.7337    7560.8375    9707.9222    7953.1459   -1038.0889   -11.659483    149.58306    290.43467 
410260000   4.1026e+08    292.26229    87095.841    8190.2998      1.00761   -866.11613    2399.9315    8080.0216     8505.032    7985.8457   -827.10966   -712.08904    349.67126    292.26236 
410270000   4.1027e+08    295.81879    87095.841    9005.6307      1.00761   -780.48675    2525.3051    8294.4112    9563.4695    9159.0114   -732.48727    17.895146    547.50285    295.82134 
410280000   4.1028e+08    290.94033    87095.841    9558.6688      1.00761    -852.1262    2399.1485    8678.3152    10221.796    9775.8955   -1124.0952    406.09455    542.19346    290.94195 
410290000   4.1029e+08    290.54681    87095.841    9275.4041      1.00761   -841.00945    2405.8676    7732.9068    10629.747    9463.5583    -855.4069   -1100.5174     751.2816    290.54678 
410300000    4.103e+08    290.45097    87095.841    8700.5212      1.00761   -814.94697    2430.8591    8032.5132    8548.1245    9520.9259   -1028.7678   -84.986978    115.90842    290.45328 
410310000   4.1031e+08    293.31784    87095.841    8582.3388      1.00761   -871.48667    2406.3569      6778.21    9512.7321    9456.0743   -1508.6903     275.8613    338.26585    293.31722 
410320000   4.1032e+08    292.39698    87095.841    9136.9874      1.00761   -824.79131    2442.7615    6806.4624     10392.55     10211.95   -1870.2423    109.92557   -156.05327    292.39631 
410330000   4.1033e+08    296.22711    87095.841    9738.8306      1.00761   -795.56108    2514.7938    8744.1446    11215.298    9257.0496   -1513.5813    71.762343    414.26506    296.23116 
410340000   4.1034e+08    287.39677    87095.841    8858.2255      1.00761   -839.37311    2372.3021    8020.7148    9202.2681    9351.6936   -983.16468   -493.10317    135.75991    287.39828 
410350000   4.1035e+08    296.55045    87095.841     8874.893      1.00761   -828.89709     2485.071    8165.8803    9664.2969    8794.5018   -1848.5193     -433.751     660.7724    296.55433 
410360000   4.1036e+08    292.40456    87095.841    9400.2285      1.00761   -891.46215    2376.1755    8767.5666    9286.7925    10146.326   -1340.5185   -474.19368   -549.72651    292.40254 
410370000   4.1037e+08    294.80019    87095.841    9549.9701      1.00761   -912.16282    2382.2461    8817.6953    10018.388    9813.8272   -649.37186       309.04    28.174789    294.80339 
410380000   4.1038e+08    288.32609    87095.841    9890.6447      1.00761   -805.81269    2416.2477    9057.8007    10360.114     10254.02   -1080.3663    148.49238   -82.701283    288.32591 
410390000   4.1039e+08    294.99604    87095.841    10222.896      1.00761   -748.46206    2548.1354    9025.9953    10746.988    10895.705   -1907.7343   -268.56736    762.43605    294.99663 
410400000    4.104e+08    295.61775    87095.841    9374.6019      1.00761   -746.47869    2557.0664    9615.3046    8899.3662    9609.1348   -1625.0631    495.73639    45.528045    295.61844 
410410000   4.1041e+08    294.06091    87095.841    9581.1842      1.00761   -827.17359    2458.9738    7078.0175    11585.952    10079.583   -688.77369   -215.58243   -213.39616     294.0601 
410420000   4.1042e+08    292.94658    87095.841    8523.7541      1.00761   -895.34725    2378.3474     7210.181    9623.9367    8737.1445    -793.2605    470.96723    107.44689    292.94724 
410430000   4.1043e+08    285.13982    87095.841     9329.362      1.00761   -783.44593    2403.0078    8676.7123    10153.869    9157.5052   -671.09877   -172.38398    490.36294    285.13761 
410440000   4.1044e+08    291.87332    87095.841    8770.3679      1.00761    -807.2687    2454.4323    8044.4028    8867.2022    9399.4987   -2176.9156    239.46643    86.636817    291.87438 
410450000   4.1045e+08    295.96429    87095.841    9509.8083      1.00761   -840.40828    2467.0095    7728.6965    11361.972    9438.7558   -836.47188    -749.8132    220.07086    295.96439 
410460000   4.1046e+08    292.77134    87095.841    9696.7137      1.00761   -760.76264    2510.9738    8564.7379    10878.758    9646.6453    -310.2157   -198.09218     604.7917    292.77117 
410470000   4.1047e+08    296.81395    87095.841     9126.584      1.00761   -837.84433    2479.0685    8505.7568    9270.2213     9603.774   -328.77679    297.47409   -272.80373    296.81806 
410480000   4.1048e+08    289.63827    87095.841    9778.8756      1.00761   -902.92209     2333.802    8465.3517    9552.1767    11319.098   -187.75645   -45.031804    384.92871    289.63849 
410490000   4.1049e+08    285.76801    87095.841    7583.2065      1.00761   -753.76649    2439.7072    5275.9649    8030.4663    9443.1884   -1296.1591   -36.049743    271.85971    285.76776 
410500000    4.105e+08    292.69497    87095.841    9227.3759      1.00761   -872.44834    2398.4345    7684.6581    10576.456    9421.0132   -596.07614     827.0815    533.57427    292.69486 
410510000   4.1051e+08    292.46423    87095.841    8565.0582      1.00761   -781.88175    2486.4226     8256.777    8947.4398    8490.9578   -1499.6281    32.783499    990.68689    292.46355 
410520000   4.1052e+08    290.47724    87095.841    9380.7186      1.00761   -805.32326    2440.7764    8434.4329    10439.876    9267.8464   -746.02951   -54.321341    120.40933    290.47949 
410530000   4.1053e+08    285.90094    87095.841    9856.1666      1.00761   -854.57958    2340.3797    9656.8078     10004.96    9906.7317   -1641.1441    291.77566    303.02503    285.90105 
410540000   4.1054e+08    292.46047    87095.841    10390.484      1.00761   -814.53434     2453.728     10232.53    10833.748    10105.174   -15.157218   -150.19806   -707.11598    292.46292 
410550000   4.1055e+08    292.17759    87095.841    9000.5829      1.00761   -899.28779    2365.8134    8914.8767    9322.5046    8764.3673   -636.68153    584.31504   -282.42504    292.17632 
410560000   4.1056e+08    291.21164    87095.841    9175.8285      1.00761   -915.91731    2338.3894    8575.2318    9491.2754    9460.9783      -1056.9   -739.29231   -356.67646    291.20996 
410570000   4.1057e+08    297.28846    87095.841    9008.9662      1.00761   -954.74561    2367.4698    7351.4428    9880.0385    9795.4173   -1746.7401    442.62798   -760.50214    297.28847 
410580000   4.1058e+08    290.05177    87095.841    9581.4876      1.00761   -774.23941    2467.1056    9457.1742    9015.9786     10271.31   -1475.9527   -185.34896   -224.57598    290.05045 
410590000   4.1059e+08    288.98004    87095.841    9878.1022      1.00761   -842.41386    2386.9545    9022.9393    10440.944    10170.423   -1131.2501    361.73197    329.45741    288.98212 
410600000    4.106e+08    290.59489    87095.841    9497.4299      1.00761   -798.64311    2448.7713    8787.2799    10070.423     9634.587   -1252.8577    1133.8081    122.15059    290.59484 
410610000   4.1061e+08    292.88632    87095.841    9785.3374      1.00761   -845.74241    2427.2789    8308.9382    10250.271    10796.803   -2049.2762   -174.13199     841.3721    292.88634 
410620000   4.1062e+08    289.84981    87095.841    9453.7239      1.00761   -850.09512     2388.993    8465.6333    10146.356    9749.1829   -296.96424   -64.289867   -737.37786    289.85043 
410630000   4.1063e+08    294.89277    87095.841    8315.3985      1.00761   -898.30007    2397.1434    7209.5916    8921.1602    8815.4437   -1225.1534    243.86789    967.23191    294.89326 
410640000   4.1064e+08    292.30634    87095.841     9223.737      1.00761   -848.47461    2418.0654     9590.565    9501.8032    8578.8428   -344.07236    412.62437   -536.25543    292.30585 
410650000   4.1065e+08    294.06916    87095.841    9693.0424      1.00761   -780.47695    2505.7627    8159.5462     10950.38    9969.2009    -355.5373    604.55242    1363.8542    294.06683 
410660000   4.1066e+08    297.87625    87095.841    10132.587      1.00761   -829.89188    2498.8922    9567.2411    10316.435    10514.085    -1114.058     231.1546    47.152586    297.87639 
410670000   4.1067e+08    297.12231    87095.841    8003.1699      1.00761   -891.95238    2428.4064    6607.4362    8810.1568    8591.9167   -1190.1927   -8.8887705    805.33252     297.1274 
410680000   4.1068e+08    285.16653    87095.841    9559.4438      1.00761   -807.77305    2378.9792    8539.1314    10444.613    9694.5868    -1387.036    842.66746     473.1275    285.16521 
410690000   4.1069e+08    292.76458    87095.841    9500.9036      1.00761   -881.12349    2390.5373    7571.7126    9959.3179     10971.68   -498.55104    2.0436337    76.717159     292.7625 
410700000    4.107e+08    297.63777    87095.841    8955.3498      1.00761   -894.20089    2431.9181    8867.1711    8732.3372    9266.5409   -471.14299   -336.59364    164.80594    297.63584 
410710000   4.1071e+08    287.95329    87095.841    8041.0512      1.00761   -856.47264    2361.4217    5975.2027    9129.4514    9018.4996   -419.25194    167.97932    442.82416    287.95554 
410720000   4.1072e+08    294.62435    87095.841    8411.1263      1.00761   -868.97544    2423.4685     7078.496    8836.6797    9318.2034   -1222.0338   -239.88969   -181.96683    294.62181 
410730000   4.1073e+08    294.99754    87095.841    9647.8836      1.00761   -853.04965    2443.5647    8604.6729    9849.7903    10489.188   -957.63845   -570.90585    -571.8586    294.99511 
410740000   4.1074e+08    298.17329    87095.841    9846.4835      1.00761    -880.0384    2452.0651    9000.2085    10581.468    9957.7736   -1003.5672    397.83974   -285.58945    298.17353 
410750000   4.1075e+08     291.6236    87095.841     9052.268      1.00761    -857.0401    2401.8702    8289.3537    8951.2703      9916.18   -198.27134    444.37135    789.67547    291.62627 
410760000   4.1076e+08    290.61651    87095.841    9272.1388      1.00761   -881.29803    2366.3579    9173.1933    9511.9331    9131.2899   -551.37793    414.44663    145.00803     290.6128 
410770000   4.1077e+08    288.47433    87095.841     10214.36      1.00761   -867.63129    2356.0858    9244.3897    11048.517    10350.174   -508.57724    86.934121   -334.74366    288.47295 
410780000   4.1078e+08    286.63694    87095.841    9238.5526      1.00761   -932.21412      2270.97     9165.473    8926.8212    9623.3635   -1030.8928     138.4298    139.47497     286.6358 
410790000   4.1079e+08    296.68527    87095.841    9403.1976      1.00761   -895.70374     2419.771    9137.2633    9491.0062    9581.3234   -890.53082    -783.2853   -734.79163    296.68733 
410800000    4.108e+08    286.89021    87095.841    9550.2914      1.00761   -832.15921    2373.8552    8751.6377    9989.8705     9909.366   -580.35113    437.93303    576.07918    286.89249 
410810000   4.1081e+08     287.3591    87095.841    8830.9532      1.00761   -884.53743    2326.7169    8215.6143    9666.8849    8610.3603   -1483.5586    378.30392   -699.30225    287.35964 
410820000   4.1082e+08    293.48814    87095.841    10073.781      1.00761   -801.88428    2477.8624    9879.9092    10487.705     9853.728   -959.91153   -698.24611   -85.477184    293.48794 
410830000   4.1083e+08    293.37604    87095.841    8776.7835      1.00761   -910.66495     2367.829     7277.476    9531.1255    9521.7489   -1235.9354    105.75496   -589.77112    293.37522 
410840000   4.1084e+08    294.92984    87095.841    9134.2261      1.00761    -910.9159    2384.9418    8720.3262    9466.9861     9215.366   -1540.3264    573.63373   -356.10683    294.93103 
410850000   4.1085e+08     297.1466    87095.841    9014.5735      1.00761   -842.01939    2478.6108    7209.9266    9925.6289    9908.1649   -1833.2178   -134.38191    702.21648     297.1476 
410860000   4.1086e+08    293.70087    87095.841     8935.027      1.00761    -815.1646    2466.9594    7321.4492    9679.7798    9803.8518   -527.40418   -188.58989   -483.94661    293.70202 
410870000   4.1087e+08    290.00904    87095.841    9120.7922      1.00761   -898.00468    2342.8628    7489.9722    10104.864    9767.5403   -1059.2353    133.58532    556.10331     290.0105 
410880000   4.1088e+08    300.01602    87095.841    8305.9545      1.00761   -954.12775    2398.5683    6763.0585    9060.7884    9094.0164   -1132.3847    332.42836    175.97493    300.01993 
410890000   4.1089e+08    288.65135    87095.841    10206.791      1.00761   -801.33966    2424.3555     9528.373    10802.851     10289.15   -1259.7917    372.92925    552.61851    288.65114 
410900000    4.109e+08    295.80534    87095.841    9962.5946      1.00761   -854.66607    2450.9754     8658.867    10270.352    10958.565   -802.51258   -172.01325   -208.12262    295.80551 
410910000   4.1091e+08    295.96386    87095.841    9656.3983      1.00761   -961.42849    2345.9845    8249.8548    10086.326    10633.014   -1310.7676    288.38848   -174.68664    295.96075 
410920000   4.1092e+08    294.34949    87095.841    9524.4149      1.00761   -771.78283    2517.5895    9216.6616    9460.5842    9895.9988   -760.39408   -95.905622    309.60512    294.34851 
410930000   4.1093e+08    293.34174    87095.841    8512.6905      1.00761   -842.83249    2435.2781    8190.9046    8714.4968    8632.6702    -632.1908   -108.74087    295.48236    293.33945 
410940000   4.1094e+08    296.16953    87095.841    9067.7424      1.00761   -843.82517    2465.8862    8302.1199    9719.1839    9181.9235   -1126.0376    709.45172   -324.81067    296.17202 
410950000   4.1095e+08    288.37581    87095.841    8896.0062      1.00761   -841.28647    2381.3296    7197.2183    9580.9146    9909.8858   -1069.3839   -106.42257    411.17036    288.37427 
410960000   4.1096e+08    289.80999    87095.841    9159.9958      1.00761   -736.89477    2501.7484    8174.1356    9898.3905    9407.4614   -246.29981    277.58885   -883.80264    289.81229 
410970000   4.1097e+08    297.69125    87095.841    9007.3297      1.00761   -805.75177    2520.9649    8479.8119    9229.0321    9313.1452   -1015.7997    529.53451   -546.51208    297.69423 
410980000   4.1098e+08    296.34778    87095.841    9251.5827      1.00761   -830.24163    2481.4617    8796.8993    9083.8113    9874.0375   -817.69683    448.23498    409.22264    296.34825 
410990000   4.1099e+08    286.77909    87095.841    7152.1122      1.00761   -849.93828    2354.8344    4734.6293    8425.1259    8296.5814   -1567.0703    320.17261   -1062.1229    286.77913 
411000000     4.11e+08    294.01244    87095.841    9351.4041      1.00761   -816.28589    2469.3199    8240.6363    10415.436    9398.1397   -805.45683   -583.06154    283.14337    294.01241 
411010000   4.1101e+08    295.32418    87095.841    9571.2356      1.00761   -789.70578    2510.5587     9225.548    9675.8914    9812.2674   -1930.4597    242.40554    9.7495419      295.325 
411020000   4.1102e+08     293.1327    87095.841     9668.161      1.00761   -812.68538    2463.0892    8677.4002    10609.422    9717.6608   -695.98457   -176.98033   -359.08263    293.13304 
411030000   4.1103e+08    292.93873    87095.841    9394.8335      1.00761   -905.45931    2368.1477    8564.4268     10102.32    9517.7535   -1258.8764   -434.23087    318.30657    292.93622 
411040000   4.1104e+08      291.535    87095.841    9414.5002      1.00761   -818.67912    2439.2411     8761.442    9919.0048    9563.0538   -1511.2719   -83.862041   -122.48225    291.53563 
411050000   4.1105e+08    289.28732    87095.841    10206.648      1.00761   -824.30898    2408.4933     8736.047    11090.308    10793.589   -1959.4236    397.80176    67.123295    289.28633 
411060000   4.1106e+08    293.26147    87095.841    9242.0662      1.00761   -840.55514    2436.6584    7525.3053    9352.6756    10848.218   -1513.8732   -24.406032   -235.07201    293.26325 
411070000   4.1107e+08    289.01073    87095.841    9220.8367      1.00761    -814.1401    2415.5713    8381.4519    9435.9484    9845.1099   -1476.2426    30.105898   -281.47261    289.01502 
411080000   4.1108e+08    297.31936    87095.841    8744.5886      1.00761   -789.06725    2533.4935    8128.9546    9574.8508    8529.9605   -1007.7242   -17.327865   -171.74043    297.31807 
411090000   4.1109e+08     292.7241    87095.841    10087.979      1.00761   -823.39256    2447.8159    9778.1129    10688.936    9796.8894   -2381.4274   -223.97305    495.14731    292.72298 
411100000    4.111e+08    288.24824    87095.841    9732.0461      1.00761   -834.27971    2386.9107    7978.8193    10314.753    10902.566    -562.5238    184.93241    1118.4206    288.24511 
411110000   4.1111e+08    294.13479    87095.841    10044.245      1.00761   -733.22941    2553.7436    9059.2758    10857.269    10216.191   -1403.4838    245.77968    190.16239    294.13611 
411120000   4.1112e+08    287.47946    87095.841    9573.2587      1.00761   -766.62059    2445.9787    8677.7632    10123.299    9918.7142   -1654.3286   -925.94895    612.40739     287.4786 
411130000   4.1113e+08    295.43375    87095.841    9397.2749      1.00761   -794.14473    2507.3442    8272.3116    10622.931    9296.5817    -804.4829   -252.30226    835.18265    295.43261 
411140000   4.1114e+08    293.04592    87095.841    8817.1723      1.00761   -837.37321    2437.4316    8322.3605    9456.9892    8672.1673   -862.31194    138.76504     153.4875    293.04826 
411150000   4.1115e+08    293.48963    87095.841    10196.181      1.00761   -817.01141     2462.752    8664.3691    11347.306    10576.868   -1062.6119    444.75568    587.45587    293.48693 
411160000   4.1116e+08    296.50456    87095.841    9501.1699      1.00761   -814.32267    2499.1327    9439.7346    9969.5637    9094.2113   -1092.2877    214.64032    647.62987     296.5055 
411170000   4.1117e+08    297.25939    87095.841    10685.671      1.00761   -799.15374    2522.7368    9878.3021    11118.599    11060.111   -1316.8582    66.371343    -90.15948    297.26078 
411180000   4.1118e+08    290.79849    87095.841    8659.3116      1.00761   -832.47215    2417.2175    6900.8004    9691.6685     9385.466   -1691.6289    128.42095    732.80676    290.79872 
411190000   4.1119e+08    290.36871    87095.841     9313.435      1.00761   -801.19612    2443.6907    7457.2565    10942.952    9540.0969   -1275.3114    788.33948    847.76837    290.36855 
411200000    4.112e+08     292.5062    87095.841    9622.4822      1.00761   -857.09437    2411.6791    8600.5054    10408.782    9858.1592    -782.5818    478.69485    84.014442    292.50401 
411210000   4.1121e+08    292.38587    87095.841    9666.5252      1.00761   -871.04237    2396.3863     8442.531    10165.448    10391.596     -989.413   -11.118726    316.00127    292.38347 
411220000   4.1122e+08    289.78869    87095.841    8584.9742      1.00761   -820.08292    2418.3222    7716.4128    8717.5433    9320.9663   -1015.3758    259.08684    332.41649    289.78893 
411230000   4.1123e+08    291.94318    87095.841    9615.3819      1.00761   -840.55299    2421.9286    10037.137    10173.266    8635.7425    -1947.144    514.22221    250.41428    291.94385 
411240000   4.1124e+08    291.60528    87095.841     8969.782      1.00761   -778.42473    2480.2809    8449.2192    9640.3279     8819.799   -1232.5178    -82.51723     275.2607    291.60283 
411250000   4.1125e+08    292.94357    87095.841    8561.0796      1.00761   -779.09331    2494.5677    7874.7667     9350.355    8458.1171   -603.58338   -53.064091    407.53813    292.94269 
411260000   4.1126e+08    286.81507    87095.841    9386.4313      1.00761   -834.85783    2370.3168    7160.2435    9910.1816    11088.869   -1803.1237    123.30264    305.74706    286.81393 
411270000   4.1127e+08    298.36419    87095.841    9100.7308      1.00761   -862.00381     2472.233    7402.1054    10514.374    9385.7131   -1501.6233    522.14513    700.12504    298.36559 
411280000   4.1128e+08    293.83971    87095.841    9316.9417      1.00761   -910.86054     2372.815    9233.7066    9314.7393    9402.3793   -1582.0858   -279.34252    654.73455    293.83714 
411290000   4.1129e+08    290.62856    87095.841    8922.6643      1.00761   -939.98013    2307.8106     8262.724    9498.1702    9007.0989    -699.3233    620.02756    671.51963    290.62841 
411300000    4.113e+08    293.90648    87095.841    9459.5229      1.00761   -819.21696    2465.2047    9738.7164    10146.015     8493.837   -632.24923    1.2392129   -128.79125    293.90599 
411310000   4.1131e+08    291.66583    87095.841    8959.4489      1.00761   -858.76737    2400.6149    8394.2269    9588.2566    8895.8632   -660.16382    24.984406    -406.5483     291.6665 
411320000   4.1132e+08    290.80536    87095.841    8619.5682      1.00761    -811.2481    2438.5183    7494.5677    9066.5214    9297.6156    -1084.603    199.31084   -558.81842    290.80065 
411330000   4.1133e+08    299.16737    87095.841    9508.4513      1.00761   -823.66199    2519.5504    8848.1881     10196.56    9480.6057   -432.79756   -280.87124    18.830688    299.16728 
411340000   4.1134e+08    302.19903    87095.841    10608.505      1.00761    -852.1685    2524.9229    10258.807    12027.735     9538.974   -316.46328   -132.29761    977.74272    302.19672 
411350000   4.1135e+08    299.26307    87095.841    8568.0619      1.00761   -853.96203    2490.3198    7318.2336    9490.6261    8895.3261   -903.90257   -192.58696    347.98024    299.26233 
411360000   4.1136e+08    292.91495    87095.841    8435.9048      1.00761   -798.73112    2474.6101    8575.6014    8800.2774    7931.8357   -684.36219    -726.4623    959.87437    292.91677 
411370000   4.1137e+08    285.37509    87095.841    9464.9137      1.00761   -877.58612    2311.4968    8183.5712     9619.959    10591.211   -1122.4013   -679.74156   -986.24539    285.37536 
411380000   4.1138e+08    292.26276    87095.841    9232.6528      1.00761   -871.90061    2394.1523    8402.1403    9571.8999    9723.9182   -317.94257    -81.03295    612.17398    292.26748 
411390000   4.1139e+08    291.37417    87095.841    9741.1035      1.00761   -764.76632    2491.3566     9384.273    9553.3087    10285.729   -487.78077   -763.29303   -715.15019    291.37296 
411400000    4.114e+08     289.5326    87095.841    8931.3693      1.00761   -797.84376    2437.6995    8849.4156    8806.5094    9138.1829     201.1362   -185.05385     243.0103    289.53166 
411410000   4.1141e+08    296.23935    87095.841    9504.7621      1.00761   -760.88869    2549.6029    8700.3733    9863.4094    9950.5035   -1083.2595   -866.00112    342.17709    296.24018 
411420000   4.1142e+08    292.33141    87095.841     8684.206      1.00761   -864.89252    2401.9276    6803.0313     10153.58    9096.0066   -536.70536   -261.42268    499.91093    292.33394 
411430000   4.1143e+08    291.86608    87095.841    9342.7535      1.00761   -856.57167    2405.0483    8481.5124    9553.3533    9993.3949   -1557.5252    233.43503   -82.609097    291.86603 
411440000   4.1144e+08    287.86195    87095.841     9110.676      1.00761   -800.18718    2416.6865    7452.5556    10315.667    9563.8055   -2066.4201    326.20156   -262.54722    287.86377 
411450000   4.1145e+08    286.77039    87095.841    8870.6437      1.00761   -758.33164    2446.3438    6946.6032     11202.95    8462.3777    -562.1879    150.72112    263.99379    286.76959 
411460000   4.1146e+08    284.46836    87095.841    9874.2411      1.00761   -816.15839    2362.7917    8768.0695    10781.049    10073.604   -954.71429    656.69826    140.21386    284.47055 
411470000   4.1147e+08    290.60855    87095.841    8941.9218      1.00761   -832.10773    2415.4594    8410.5087    9555.0716     8860.185   -1619.1548   -371.92507    303.24997    290.61099 
411480000   4.1148e+08    300.51223    87095.841    9944.2897      1.00761   -767.51901    2590.7223    9433.6287     9777.328    10621.912   -1059.2789    182.67378   -913.08622     300.5125 
411490000   4.1149e+08    292.67338    87095.841    8354.9411      1.00761   -768.01077    2502.6309    7579.0426    10021.337    7464.4432   -743.03179   -296.68069   -102.41153    292.67016 
411500000    4.115e+08    295.52012    87095.841     10515.74      1.00761   -859.15182    2443.3023    9887.2709    11225.951    10433.999   -1471.1686      674.681    497.56553    295.52107 
411510000   4.1151e+08    289.39301    87095.841    9720.3217      1.00761   -808.04209    2425.9412    9233.2981    9380.0668      10547.6    -474.0187   -1046.2795    118.60914     289.3927 
411520000   4.1152e+08    287.66573    87095.841    8269.8736      1.00761   -806.12798    2408.5529     7374.422    8074.1134    9361.0854   -1409.3516   -618.06114   -184.17329    287.66448 
411530000   4.1153e+08      291.079    87095.841    10087.196      1.00761   -822.71949    2430.1049    9884.8124    10470.546    9906.2288   -467.04789    632.65891   -34.695606    291.07738 
411540000   4.1154e+08    290.53851    87095.841    8861.3202      1.00761   -837.50901    2409.2754    8659.3142    8768.8149    9155.8316   -1191.2587   -840.59956   -408.88847    290.54234 
411550000   4.1155e+08    294.05173    87095.841    8983.1956      1.00761   -810.75502    2475.2897    8015.4452    9389.1242    9545.0174   -1840.3123   -761.92877    540.37798    294.05478 
411560000   4.1156e+08    293.46006    87095.841     10505.69      1.00761   -813.19475    2466.2381      10774.6    9969.5852    10772.885   -264.92847   -495.99106   -689.83993    293.46211 
411570000   4.1157e+08    299.99531    87095.841    9571.8207      1.00761   -825.16653    2527.2981    9110.4984    10474.918    9130.0458   -628.67666    422.51413    335.38491    299.99467 
411580000   4.1158e+08    292.21164    87095.841    8815.0865      1.00761   -878.24333    2387.2384    7355.9419    9797.9131    9291.4044   -977.49145    525.06234   -64.523587    292.21424 
411590000   4.1159e+08    287.29776    87095.841    8630.6078      1.00761   -837.46859    2373.1002    7835.8794    9188.7031     8867.241   -1394.1618   -808.37101     394.0956    287.29798 
411600000    4.116e+08    296.33482    87095.841    8890.3116      1.00761   -820.34884    2491.2096    9081.8404    8837.6542    8751.4403     503.1258   -595.49039   -197.28956    296.33383 
411610000   4.1161e+08    300.88661    87095.841    9534.3028      1.00761   -951.72604    2410.6989    9144.8346    10324.521    9133.5531   -398.65227    84.698736   -22.779888    300.88874 
411620000   4.1162e+08    292.19616    87095.841     9146.488      1.00761   -851.04611    2414.2626    8812.6345    9348.6252    9278.2043   -201.01623    30.907511    672.04268    292.19573 
411630000   4.1163e+08    292.31187    87095.841    8886.5456      1.00761   -791.90546    2474.6964    8168.0178    9259.9067    9231.7123    -1174.824   -505.10069   -635.31243    292.31388 
411640000   4.1164e+08     294.7799    87095.841    9058.7693      1.00761   -872.76942    2421.4128    8474.2249    9246.3216    9455.7613   -1138.4918    131.66304   -157.07623    294.77968 
411650000   4.1165e+08    288.44197    87095.841    9311.7679      1.00761   -800.88543      2422.47    7837.4966    9801.6073      10296.2   -441.83897   -182.71133    278.99763    288.43947 
411660000   4.1166e+08    294.25628    87095.841    9881.3121      1.00761   -865.87163    2422.4591    9571.8414    10453.279    9618.8156    -1996.778    103.22357    -221.2964    294.25682 
411670000   4.1167e+08    299.06953    87095.841    9262.5237      1.00761   -821.24124    2520.8777    9024.9533    10059.434    8703.1839   -612.12061     19.46875   -343.27701    299.06995 
411680000   4.1168e+08    293.91137    87095.841    9355.1056      1.00761   -845.32598    2439.1503    8359.4293     10449.52    9256.3675   -1129.7914    165.55063     -945.614    293.91322 
411690000   4.1169e+08     293.8177    87095.841    9180.3556      1.00761   -907.29962    2376.1299    8710.1157    9684.5626    9146.3884   -1816.6205    80.627119   -774.01806    293.81761 
411700000    4.117e+08    298.93785    87095.841    8580.1445      1.00761   -921.00387    2419.6436     7302.367    8795.3654     9642.701   -1345.7248   -434.61545    58.909442    298.93823 
411710000   4.1171e+08    294.99899    87095.841    9846.6763      1.00761   -912.48021    2384.1503    8132.2732    10347.787    11059.969   -400.23002   -39.322922   -226.34246    294.99692 
411720000   4.1172e+08    289.49139    87095.841    9172.8308      1.00761   -855.01606    2380.0667    8438.8899    9862.3012    9217.3012   -1827.0058   -319.04452   -28.538799    289.48955 
411730000   4.1173e+08     296.9006    87095.841    10035.355      1.00761   -718.00558    2599.8755    9133.1204    10461.313    10511.631   -415.78311    527.13681     196.7183    296.90174 
411740000   4.1174e+08    294.76576    87095.841    9486.6433      1.00761   -871.46434    2422.5598    8017.7736    10730.279    9711.8773   -408.25534    98.183359    377.16307    294.76669 
411750000   4.1175e+08    289.13198    87095.841    8738.4651      1.00761   -931.90939    2299.1569    8277.8702    8868.2587    9069.2663   -900.26235    158.66632     527.7916    289.13152 
411760000   4.1176e+08    286.11947    87095.841    8904.7306      1.00761   -868.09465    2329.3067    7746.9871    10055.803    8911.4021   -548.76257   -539.87902    241.22066    286.11545 
411770000   4.1177e+08    286.94101    87095.841    8604.3401      1.00761   -917.50581    2289.0763    8023.3196    9200.1971    8589.5035   -1073.0142    180.77758   -730.34856    286.94023 
411780000   4.1178e+08    291.38882    87095.841    9011.3796      1.00761   -836.61575    2419.6709    8764.2802     9094.691    9175.1677   -642.83255    -663.5525   -417.34293    291.38707 
411790000   4.1179e+08    284.18388    87095.841    8622.3206      1.00761   -878.30985    2297.4611    7442.2022    8987.4051    9437.3547   -1279.3857   -458.04477    486.52324    284.18635 
411800000    4.118e+08    294.22785    87095.841    8497.8579      1.00761     -879.039     2408.974    7332.3627    10036.069    8125.1417   -1666.2978    137.53242   -83.872331    294.22592 
411810000   4.1181e+08    287.17855    87095.841    8922.7662      1.00761   -877.79346    2331.4432    8022.6567    8979.0591    9766.5828    -1806.832   -430.86964   -256.83201    287.17654 
411820000   4.1182e+08    294.25507    87095.841    9098.6286      1.00761   -840.78228    2447.5348    7697.2286    9701.8695    9896.7877   -816.32155    221.09226   -333.45084    294.25694 
411830000   4.1183e+08    291.48098    87095.841    8142.8341      1.00761   -878.79731    2378.5193    8127.2584    8299.0897    8002.1541   -920.99965    409.04464    607.43263     291.4817 
411840000   4.1184e+08    289.87079    87095.841    9528.6245      1.00761   -895.94164     2343.381     9379.751    11092.432    8113.6906   -832.23763   -12.373754    -458.0303    289.87099 
411850000   4.1185e+08    290.35722    87095.841    9080.5901      1.00761   -887.79707    2356.9614    7678.2893     9909.619    9653.8619   -1426.3663    21.196821    592.59638    290.35475 
411860000   4.1186e+08    300.39769    87095.841    9804.2927      1.00761   -896.39315    2460.5682    9004.2294     9883.819     10524.83   -1105.0314   -602.49796    1022.6471    300.39682 
411870000   4.1187e+08    294.85453    87095.841    9382.2232      1.00761   -897.59659    2397.4196    9661.4668    9630.4326    8854.7703   -1552.2927   -20.623204   -587.67114    294.85309 
411880000   4.1188e+08    285.45433    87095.841    8484.4832      1.00761   -893.46612    2296.5022     6515.186    8403.8413    10534.422   -1509.7987    986.83205    907.62541    285.45401 
411890000   4.1189e+08    293.91551    87095.841    9237.9897      1.00761   -932.42101    2352.1015     9192.175    9513.4647    9008.3294   -1364.3122    -6.020258   -103.01791    293.91211 
411900000    4.119e+08    291.38209    87095.841    9258.5838      1.00761   -802.94591    2453.2655    8278.0569    9651.6497     9846.045   -1452.8222    10.560913     69.52496    291.37966 
411910000   4.1191e+08    295.46682    87095.841    9734.6412      1.00761   -849.18913    2452.6694    8775.7617    9467.6592    10960.503   -1178.4107   -346.57988   -648.12263     295.4632 
411920000   4.1192e+08    293.06708    87095.841    9014.5597      1.00761   -796.90775    2478.1335    8367.9593    9735.1981    8940.5217   -908.09083    156.51577   -552.20271    293.06819 
411930000   4.1193e+08    297.36707    87095.841    8907.7448      1.00761   -859.90078    2463.1932    7711.2502     9266.824    9745.1601   -903.81637  -0.64517164    -225.3841    297.36708 
411940000   4.1194e+08    294.69004    87095.841    9484.6919      1.00761   -846.23532    2446.9426    7507.7058     10989.62    9956.7498   -1496.1367    562.04952    140.95499    294.68991 
411950000   4.1195e+08    290.92896    87095.841     10038.79      1.00761   -943.98462    2307.1631    9541.7772    10709.367    9865.2258   -1707.0346    5.7791391    686.62621    290.93028 
411960000   4.1196e+08     294.9891    87095.841    9699.3094      1.00761   -839.78359    2456.7364    7404.7724    10813.314    10879.842   -1082.0161   -114.99704   -196.56886     294.9921 
411970000   4.1197e+08    292.81131    87095.841     9565.686      1.00761   -816.97113    2455.2119    9203.0177    9969.2534    9524.7869   -1062.1452   -244.34732   -434.88281    292.81216 
411980000   4.1198e+08    297.09421    87095.841    8773.5466      1.00761   -798.75861    2521.2861    8044.2921    9884.4037     8391.944   -1293.3645    24.056363   -221.74161    297.09071 
411990000   4.1199e+08    286.75048    87095.841    8562.1001      1.00761   -843.87017    2360.5828    7768.1524    8965.5381    8952.6096   -1691.6798   -163.27933   -318.49892    286.75175 
412000000     4.12e+08    288.15055    87095.841    8444.3502      1.00761    -819.1084    2400.9904    7509.7585    8929.5457    8893.7464    -1358.131    -759.1984    33.473034    288.14892 
412010000   4.1201e+08    289.58444    87095.841    9774.9048      1.00761   -894.69887    2341.4237    8849.7786    10925.707     9549.229   -1264.1659   -446.65643   -1054.3482     289.5848 
412020000   4.1202e+08    297.32966    87095.841    8850.6871      1.00761   -790.13582    2532.5401    8296.6169    10052.995    8202.4489   -2218.4316   -325.56266    -809.1315    297.33102 
412030000   4.1203e+08    295.97096    87095.841     8900.113      1.00761    -881.5652    2425.9271    7317.0906    9953.4315    9429.8169    -1697.723    437.56761    445.82068     295.9744 
412040000   4.1204e+08    286.90656    87095.841    10066.369      1.00761   -771.36152    2434.8357    9181.1086    9971.6149    11046.382   -2346.2038   -535.73063   -633.37498    286.90752 
412050000   4.1205e+08    287.94264    87095.841    9881.5891      1.00761   -793.38784    2424.3875    9377.0278     10139.74        10128    -1252.957    8.8260317    106.66676    287.94198 
412060000   4.1206e+08    297.12189    87095.841    9527.7324      1.00761   -850.51366    2469.8404    7879.4789    10476.308    10227.411   -2302.9593   -144.01357   -548.91233    297.11921 
412070000   4.1207e+08    295.71803    87095.841    8074.5037      1.00761    -798.4581    2506.2077    6714.3364    8845.7279    8663.4468   -2177.6778   -264.29733    58.868705    295.71912 
412080000   4.1208e+08    288.13703    87095.841    9198.3765      1.00761   -774.12031    2445.8274    7411.5565    10159.645    10023.928   -1447.8833    385.01018    -657.9026    288.13746 
412090000   4.1209e+08    296.26249    87095.841    9203.6945      1.00761   -857.18992    2453.5602    8041.4589     9724.138    9845.4866   -1431.6927    180.46938   -727.58606    296.26369 
412100000    4.121e+08    301.45385    87095.841    9279.9676      1.00761   -923.24972    2445.5142    6755.0549    10722.266    10362.582   -1233.1914   -441.82763    206.86714    301.45199 
412110000   4.1211e+08    288.95656    87095.841    10157.253      1.00761   -833.06873    2396.0372    8717.6586    11152.335    10601.764   -769.58963    80.926811    -867.6727    288.95672 
412120000   4.1212e+08    287.38824    87095.841    10199.721      1.00761   -691.54306    2520.0368    9831.6161     10531.28    10236.268   -1152.2891    203.14476   -96.371154    287.38749 
412130000   4.1213e+08    294.82677    87095.841    8883.6272      1.00761   -807.08448    2487.6215     7567.516    10177.898    8905.4678   -835.97824   -273.15586   -167.37489    294.82537 
412140000   4.1214e+08     291.8823    87095.841    8754.4818      1.00761   -826.66143    2435.1399    7562.7419    10072.797    8627.9063   -2634.2443    108.60753    755.76937    291.87825 
412150000   4.1215e+08    290.48568    87095.841    9190.6442      1.00761   -799.80112    2446.3929    7231.4195    10182.121    10158.392   -1822.8171   -1371.7055   -5.6981453    290.48515 
412160000   4.1216e+08    297.13066    87095.841       9625.9      1.00761   -821.39821    2499.0539    9296.0614    10158.869    9422.7693   -1604.0521   -129.90908    535.35141    297.13025 
412170000   4.1217e+08    291.60593    87095.841     9697.768      1.00761   -771.11616    2487.5967    9157.1656    9301.3684     10634.77   -779.34904    61.816246    104.65099    291.60355 
412180000   4.1218e+08     291.6056    87095.841    8910.7894      1.00761   -821.42116     2437.288    7212.1116    10800.217    8720.0392   -1116.0362    94.350562    387.62035    291.60547 
412190000   4.1219e+08    289.13501    87095.841    8789.0239      1.00761    -778.7763    2452.3239    7387.7499    9801.5717    9177.7502   -1880.1447   -177.70057   -479.72131     289.1368 
412200000    4.122e+08    289.56114    87095.841    10293.643      1.00761   -738.34984    2497.5124    8927.7426    11123.859    10829.329   -1733.6926    62.224136    170.28587    289.56217 
412210000   4.1221e+08    286.31974    87095.841    9648.9157      1.00761   -837.95639     2361.683    10129.946    9860.1837    8956.6171   -1023.0956   -198.04678    59.833488     286.3211 
412220000   4.1222e+08    288.94004    87095.841    9373.8336      1.00761   -821.91121    2407.0102    8585.7463    10139.407    9396.3475   -558.08985   -490.67555   -102.30519    288.93908 
412230000   4.1223e+08    296.15776    87095.841    8894.0299      1.00761   -777.20594    2532.3739    7942.8633    9387.9396    9351.2867   -908.88005     595.1334    1056.7651    296.15387 
412240000   4.1224e+08    296.62451    87095.841    9362.2441      1.00761   -806.89195    2507.9038    9378.0882    8943.0837    9765.5605   -851.42594   -117.07222   -175.05543    296.62562 
412250000   4.1225e+08    300.40168    87095.841    8203.8611      1.00761   -880.15486     2476.851    6673.5825    9026.3366    8911.6642   -1847.1658    19.565275    698.13364    300.40018 
412260000   4.1226e+08    290.22804    87095.841    9451.1538      1.00761   -794.92967    2448.3852     8568.559    10846.912    8937.9902   -916.69658   -727.93261    619.59472    290.23214 
412270000   4.1227e+08    289.55062    87095.841    8039.0111      1.00761   -824.01435    2411.7303    7132.8699    9357.7411    7626.4224   -2783.4445    220.05969   -422.31252    289.54846 
412280000   4.1228e+08    301.77986    87095.841    8840.5341      1.00761   -775.14428    2597.2628    9006.7365    8221.4392    9293.4266   -1535.8051   -198.71518    518.30328     301.7826 
412290000   4.1229e+08     294.2183    87095.841    9832.1901      1.00761   -918.33144    2369.5748     9115.927    10341.228    10039.415     127.0465    780.07179      920.312    294.22047 
412300000    4.123e+08    289.96896    87095.841      8807.28      1.00761    -819.3354    2421.0842    8251.0658     9084.849    9085.9253   -2005.8491    280.68842    317.33337    289.96701 
412310000   4.1231e+08    292.52127    87095.841    9025.1855      1.00761   -802.48884     2466.453    7630.2382    10792.011    8653.3077   -990.87251    129.15914    564.37889    292.52136 
412320000   4.1232e+08    295.30084    87095.841    9032.8946      1.00761   -845.97731    2454.0264     7595.758    9235.0662     10267.86   -584.97677    388.31727    294.02985    295.30004 
412330000   4.1233e+08     297.6959    87095.841    9441.2461      1.00761   -842.90742    2483.8612    9466.6824     10172.62    8684.4358   -320.91759   -211.09989    46.080625    297.69527 
412340000   4.1234e+08    290.46076    87095.841    8580.2512      1.00761   -832.37778    2413.5378    6934.4587    9385.1721    9421.1226   -1664.3954    424.01845    9.5880222    290.45899 
412350000   4.1235e+08    297.28213    87095.841    8618.6086      1.00761   -900.92697    2421.2177    7180.7385    9651.0648    9024.0225   -917.43411   -194.22337    197.17618    297.28087 
412360000   4.1236e+08    296.79312    87095.841    9288.7267      1.00761   -783.62135    2533.0586    8150.7889    10406.935    9308.4565   -811.82526    440.98117    515.76652    296.79366 
412370000   4.1237e+08    283.93121    87095.841    9399.1641      1.00761   -858.26851    2314.6789    7674.3471    10522.383    10000.762   -1584.7672    526.79416    971.14032    283.93051 
412380000   4.1238e+08    292.65472    87095.841    8930.2133      1.00761   -841.18727    2429.2459    6606.7254    9400.3614    10783.553   -925.96721    235.42941    310.98893    292.65538 
412390000   4.1239e+08    296.34103    87095.841    9470.3543      1.00761   -825.92619    2485.7016    8665.3838    9815.0368    9930.6424   -1316.7565    716.05024    904.33479    296.34282 
412400000    4.124e+08    292.57636    87095.841    9399.9759      1.00761   -849.89734    2419.6601    8380.7974    10366.439    9452.6913   -594.50897    -270.0043    99.433241    292.57699 
412410000   4.1241e+08    294.88677    87095.841    10137.605      1.00761    -790.7507    2504.6257    9514.5133    10084.402    10813.901   -710.45293    279.20561    159.77292    294.88656 
412420000   4.1242e+08    298.78411    87095.841    10154.033      1.00761   -830.46308    2508.4663    8567.2052    10819.673    11075.222   -517.92866    242.92349    240.83896    298.77935 
412430000   4.1243e+08    289.79442    87095.841    9945.3018      1.00761   -831.75183    2406.7173    9729.4699    10497.176    9609.2598   -906.28627    617.21087   -735.00718    289.79439 
412440000   4.1244e+08    291.87268    87095.841    9138.9552      1.00761   -808.58022    2453.1136    8702.4449    9725.1953    8989.2254   -1165.7316    17.922423    585.20729    291.87382 
412450000   4.1245e+08    292.29361    87095.841    9325.3122      1.00761   -776.77965    2489.6181    8414.7783    9506.8381     10054.32   -642.53517   -229.95353    71.718453    292.29521 
412460000   4.1246e+08    288.79049    87095.841    9019.0423      1.00761   -830.17049    2397.0796    7740.5411    8844.2885    10472.298   -898.84771     513.9621   -359.64481    288.78873 
412470000   4.1247e+08     297.2684    87095.841    9077.4298      1.00761   -879.33345    2442.6578    8271.6284    9064.8955    9895.7655   -893.37141   -588.32986    377.61582     297.2648 
412480000   4.1248e+08    297.05338    87095.841    9476.2429      1.00761   -806.37702    2513.2114    8596.4334    10169.072    9663.2236   -1156.1834    83.071355    261.81277    297.05166 
412490000   4.1249e+08    280.84305    87095.841    9342.5346      1.00761   -872.43283    2266.0042    7277.4952    10593.102    10157.006   -1469.5046    283.96022    376.73102    280.84193 
412500000    4.125e+08    288.79718    87095.841    10055.653      1.00761   -852.08489      2375.24    9334.8483    10498.588    10333.522   -1439.0447   -54.960994   -251.72989    288.79638 
412510000   4.1251e+08    292.88087    87095.841    9003.6733      1.00761   -740.23065    2532.7297    7376.3755    9456.3499    10178.294   -2092.3245    2.0242167   -219.59853    292.88267 
412520000   4.1252e+08    284.38152    87095.841    8939.0296      1.00761   -784.17075    2393.8089    7960.1547    9366.5251     9490.409   -801.08301    750.05129    267.76137    284.37897 
412530000   4.1253e+08    289.85087    87095.841    8825.7177      1.00761   -832.02561    2407.0744    7599.9841    9062.5737    9814.5952    -1036.907    344.69152    1122.3183    289.85241 
412540000   4.1254e+08    288.31784    87095.841    8917.3877      1.00761   -798.36242    2423.6058    7581.9189    9037.9497    10132.294   -1226.5096    -283.9292    110.19412    288.32102 
412550000   4.1255e+08    293.18858    87095.841    8474.2076      1.00761   -728.30177    2548.0973    8567.0339    8982.9442    7872.6446   -1443.1571   -658.81102    54.139143    293.18678 
412560000   4.1256e+08    291.53142    87095.841    9114.0437      1.00761   -848.60993    2409.2703    6878.6942    10816.029    9647.4082   -1844.6543   -333.31921    211.27921    291.53294 
412570000   4.1257e+08    287.31492    87095.841    9706.4959      1.00761   -763.89155    2446.8691    7638.0866    10704.518    10776.883   -1198.7182    494.90188   -201.51346    287.31435 
412580000   4.1258e+08    299.07166    87095.841    9200.4974      1.00761   -788.71491    2553.4279    7980.1579    9955.7618    9665.5724   -1430.2961   -167.16424    78.082928    299.07369 
412590000   4.1259e+08    294.37319    87095.841     10267.37      1.00761   -831.26494    2458.3722    9866.6531    10522.759    10412.697   -907.96914    492.28479    99.904074    294.37625 
412600000    4.126e+08    291.72699    87095.841    9711.2585      1.00761   -840.47613    2419.5896    8769.6991    10592.824    9771.2526    140.82674    349.67387    677.99659     291.7291 
412610000   4.1261e+08    288.66249    87095.841    9169.1117      1.00761   -840.40382    2385.4159    8246.0237    10244.372    9016.9398   -926.68669     243.7853    109.86171    288.66299 
412620000   4.1262e+08    296.72624    87095.841    9430.2689      1.00761   -863.85512    2452.0775    9682.1543    8865.8473    9742.8049   -1159.7645    123.97178     41.93584    296.72689 
412630000   4.1263e+08    291.90199    87095.841     10430.77      1.00761   -740.23402    2521.7873    9466.9887    10455.541     11369.78   -1712.3993     99.24695   -507.72767    291.89987 
412640000   4.1264e+08    288.42227    87095.841    9033.0994      1.00761   -813.97357    2409.1617    8698.5217    9774.1277    8626.6488   -430.71679   -401.39261    8.5359073    288.42351 
412650000   4.1265e+08    293.35813    87095.841    9270.6663      1.00761   -809.77935    2468.5144    9067.0971    9299.1308     9445.771   -1265.0406   -1006.3883    770.71707    293.35806 
412660000   4.1266e+08    294.49507    87095.841    9608.1827      1.00761   -830.82206    2460.1771    8538.5799    10086.726    10199.242   -287.99172   -594.31508   -751.87615    294.49323 
412670000   4.1267e+08    288.99358    87095.841    8599.3736      1.00761   -763.86222    2465.6574    7307.4525    8666.5135    9824.1547   -808.60286   -291.60959   -669.26908     288.9932 
412680000   4.1268e+08    299.49605    87095.841    9723.3368      1.00761   -896.32053    2450.5649    8780.9776    10323.025    10066.008   -772.93835   -418.66449    1175.7005    299.49264 
412690000   4.1269e+08    300.45648    87095.841    9613.1571      1.00761   -818.73193    2538.8863    9451.5517    9817.6506    9570.2689   -739.71813    860.47498    657.00813    300.45551 
412700000    4.127e+08    290.31684    87095.841    9715.4419      1.00761   -929.28017    2315.0271    9516.5345    9289.1869    10340.604    -1647.164    60.532234    -850.9343    290.31677 
412710000   4.1271e+08    299.20252    87095.841    9406.9828      1.00761   -844.99276    2498.6125    9383.2794    9213.0757    9624.5934   -458.95401     230.7467    280.35224    299.20111 
412720000   4.1272e+08    293.18437    87095.841    8323.4199      1.00761   -722.34839    2554.0036    7140.3526    9162.2203    8667.6869    -1005.218    62.149662    161.76844    293.18697 
412730000   4.1273e+08    297.09161    87095.841     9509.757      1.00761   -852.33455    2467.6811    8391.1517    9373.4621    10764.657   -1880.8381    259.50856    26.242749    297.09195 
412740000   4.1274e+08    294.74335    87095.841    9490.9034      1.00761   -836.97605    2456.7976    8898.7521    8899.1356    10674.823   -335.80475    787.94635   -673.65883    294.74307 
412750000   4.1275e+08    299.62849    87095.841    8674.6228      1.00761    -789.5346    2558.8308    7573.6592     9832.636    8617.5734   -939.61089   -203.58659     491.7645    299.62728 
412760000   4.1276e+08    286.20469    87095.841    9217.3114      1.00761   -829.07274    2369.2809    8303.2552    9575.5744    9773.1044   -203.29154     520.4429   -393.66849    286.20459 
412770000   4.1277e+08    288.09947    87095.841    9360.5442      1.00761    -834.5632    2384.9648    7872.3205    9922.9631    10286.349   -211.94992   -235.80291    142.44333    288.09951 
412780000   4.1278e+08    295.43299    87095.841    8548.9519      1.00761   -788.71739    2512.7631    7691.8602     9192.636    8762.3593   -607.22978    937.76842   -280.11736    295.43463 
412790000   4.1279e+08    293.95018    87095.841    8511.7623      1.00761   -798.52717    2486.3828    8684.2234    8003.7403    8847.3232    -849.2696    190.26255   -253.45184    293.94828 
412800000    4.128e+08    293.86967    87095.841    9348.5316      1.00761   -753.43223     2530.578    8433.3268    10154.674    9457.5938   -1056.0087    243.42084   -190.42888    293.86856 
412810000   4.1281e+08     298.1513    87095.841    8630.8344      1.00761   -689.97998    2641.8777    6738.1474    9575.1073    9579.2483   -963.51917    -419.6369   -1067.7121    298.15176 
412820000   4.1282e+08    296.85445    87095.841    9428.6872      1.00761   -821.66287    2495.7025    8396.0061    9573.2919    10316.764   -1093.1169   -877.16527    74.193464    296.85286 
412830000   4.1283e+08    294.17314    87095.841    8179.2418      1.00761   -777.96514    2509.4364    7611.3115     8007.933    8918.4808   -753.92725    109.73441   -35.207013    294.17441 
412840000   4.1284e+08    290.05869    87095.841    9850.1643      1.00761   -820.35904    2421.0633    8400.0212    10948.719    10201.753   -1000.6513   -556.23554    578.45456    290.06037 
412850000   4.1285e+08    292.49183    87095.841    9385.7498      1.00761   -785.82773    2482.7851    9065.7462    10083.322    9008.1813   -718.51596    104.36778   -6.0758094    292.48854 
412860000   4.1286e+08    293.10046    87095.841    9764.0677      1.00761   -856.81482    2418.5995    9827.4968     8913.555    10551.151   -806.85946   -239.78535   -2.5361892    293.09822 
412870000   4.1287e+08    292.55628    87095.841    9452.6945      1.00761   -873.26396    2396.0692    9130.1209    9567.9749    9659.9876   -520.40221    599.55241    36.003721    292.55588 
412880000   4.1288e+08    291.30157    87095.841    9721.1057      1.00761   -802.03265     2453.279    8499.6762    10270.723    10392.918   -1692.7406    1749.6613   -595.65963    291.30566 
412890000   4.1289e+08     293.1462    87095.841    9631.9957      1.00761   -849.88483    2426.0407    8499.5291    9716.1897    10680.268   -1123.8133   -235.18096   -716.91431    293.14618 
412900000    4.129e+08    292.98744    87095.841    9150.7189      1.00761   -861.11681    2413.0345    8284.5909    9520.8745    9646.6914   -767.65993    696.09245    353.56457    292.98793 
412910000   4.1291e+08    296.82503    87095.841    9681.4581      1.00761   -820.35299    2496.6836    8693.0763    9769.8225    10581.476   -1012.9697   -87.159144   -22.253023    296.82844 
412920000   4.1292e+08    288.86116    87095.841    8980.2696      1.00761   -839.69246    2388.3475    9186.2787    8727.3101    9027.2198   -2247.6399   -606.04525   -25.994665    288.85933 
412930000   4.1293e+08    296.43811    87095.841    8571.0295      1.00761   -888.77015    2423.9426    8285.7509    8986.5397     8440.798   -1881.9602    527.40431   -700.50107    296.44062 
412940000   4.1294e+08    297.54911    87095.841     8219.154      1.00761   -819.57115     2505.557    7917.3804    8344.2028    8395.8789   -1217.2666   -100.78561   -22.919481    297.54962 
412950000   4.1295e+08    286.85342    87095.841    9214.5776      1.00761   -812.29048    2393.3128    8497.2648    9531.4285    9615.0394   -1509.9456    468.18098     -311.396    286.85302 
412960000   4.1296e+08    288.87043    87095.841    8503.2588      1.00761   -924.81458    2303.3289    7800.3579    9263.0164    8446.4022   -1260.6074   -566.60154   -780.84792    288.87192 
412970000   4.1297e+08    299.72556    87095.841    8940.8396      1.00761   -903.51475    2445.9354     8667.607    8174.5426     9980.369    -1574.805   -430.98052    252.28532    299.72762 
412980000   4.1298e+08    300.91156    87095.841    9277.5577      1.00761   -925.08757    2437.6162    7860.3506    9633.7251    10338.598   -1211.6832    278.96818   -708.22626    300.91319 
412990000   4.1299e+08    287.19826    87095.841    8972.2512      1.00761   -820.46025    2388.9967    7887.3903    9372.2351    9657.1282    26.055962    183.36555   -769.27283    287.19748 
413000000     4.13e+08    292.40923    87095.841    9615.2107      1.00761   -809.19668    2458.4931    9143.0676    9622.5819    10079.983   -1432.5331    260.24047    -463.7234    292.40916 
413010000   4.1301e+08    293.87856    87095.841    9522.6423      1.00761    -817.7743    2466.3353    7754.6258    10548.473    10264.828   -1211.0704   -785.74344    -1394.675    293.87979 
413020000   4.1302e+08     297.1334    87095.841    9044.2869      1.00761    -881.3892    2439.0935    7294.1169    10031.841    9806.9025   -1041.0508    216.34156   -122.00953    297.13153 
413030000   4.1303e+08    287.12122    87095.841    9386.8921      1.00761    -798.2397    2410.3562    7963.3794    9462.6654    10734.631   -1140.6612 -0.053379583   -928.57577    287.11977 
413040000   4.1304e+08    293.22339    87095.841    9017.9883      1.00761   -822.22561    2454.5624     8085.426    9856.9782    9111.5606   -1109.6401    262.15084    489.84274    293.22308 
413050000   4.1305e+08    292.35196    87095.841    9070.8543      1.00761   -851.88809    2415.1617    8997.6268    9703.1966    8511.7394   -1426.4917   -365.19476    -89.30783    292.35171 
413060000   4.1306e+08    295.78533    87095.841    8880.9505      1.00761   -824.61599    2480.8019    7385.2321    9771.9104     9485.709   -1098.9421    5.2169951    873.66062    295.78657 
413070000   4.1307e+08    290.92817    87095.841    9175.6352      1.00761   -780.86847    2470.2704    8964.2429    9040.7757    9521.8871   -1029.7248   -241.48353   -34.634511     290.9275 
413080000   4.1308e+08    295.20542    87095.841    9252.6932      1.00761   -808.99284    2489.9446    7426.3795    10426.809    9904.8908   -2087.3534   -202.24187   -651.99826    295.20514 
413090000   4.1309e+08    295.12611    87095.841    9131.5806      1.00761   -843.68304    2454.3681    8915.1279    9137.2157    9342.3982   -1544.5392   -542.28536   -468.04001    295.12545 
413100000    4.131e+08    288.21327    87095.841    9104.1233      1.00761   -800.44435    2420.3554    8198.7365    9532.1077    9581.5256   -1195.0992     295.6209   -564.37445    288.21223 
413110000   4.1311e+08    296.12857    87095.841    8260.2453      1.00761   -906.51505    2402.7385    6412.5571    9208.2624    9159.9164   -1418.7218    369.68669   -332.37951    296.13027 
413120000   4.1312e+08    295.71515    87095.841    9352.2676      1.00761   -925.78097    2378.8527    8605.8631    9335.3029    10115.637   -839.22925    301.85606    448.22242    295.71265 
413130000   4.1313e+08    290.63863    87095.841    8340.4264      1.00761   -802.64915    2445.2541    8355.4812    8351.7364    8314.0615   -1422.2872    613.24016   -1273.5283    290.63705 
413140000   4.1314e+08    296.05109    87095.841    8492.5506      1.00761   -845.38264    2463.0052    8758.9761    8489.5145    8229.1614   -2300.3042   -193.12978    -367.0748    296.05169 
413150000   4.1315e+08    294.78736    87095.841    9085.1374      1.00761    -739.0156    2555.2499    8354.7873    9212.3856    9688.2392   -787.41398   -60.073255    93.268388    294.78837 
413160000   4.1316e+08    297.28986    87095.841    8791.6782      1.00761   -809.78984    2512.4412    7254.0112    9558.2937    9562.7298   -996.65576   -99.827532    859.18126     297.2893 
413170000   4.1317e+08    294.81484    87095.841    7811.6916      1.00761   -860.86376    2433.7089    5407.2889    9119.8953    8907.8905   -1210.4104   -481.71223   -378.15971    294.81499 
413180000   4.1318e+08    301.92657    87095.841    9352.8422      1.00761   -881.55614    2492.4904    8126.3275    10069.453    9862.7461    -1079.029   -537.98834   -829.31403     301.9252 
413190000   4.1319e+08    288.28058    87095.841    9124.4498      1.00761   -908.64801    2312.9038    7704.4836    10108.352    9560.5135   -1202.9953   -134.50029   -129.63851    288.28163 
413200000    4.132e+08    296.21722    87095.841    8825.0534      1.00761   -865.48248    2444.7618    7748.8098    8978.0366    9748.3137   -1378.3856   -465.35753   -171.43091    296.21344 
413210000   4.1321e+08    292.85018    87095.841      9308.54      1.00761   -823.72045    2448.8969    8159.3539    9392.0485    10374.218   -1492.4535    320.78752    12.638118    292.84634 
413220000   4.1322e+08    298.50956    87095.841    9287.8257      1.00761   -812.60615    2523.2551    7944.2444    10191.568    9727.6644   -560.49683    423.39412    1093.4644    298.50792 
413230000   4.1323e+08     288.0742    87095.841    10451.917      1.00761    -871.3416     2347.904    10089.531    10246.795    11019.425   -872.86736     577.1917    401.20543    288.07593 
413240000   4.1324e+08    289.55931    87095.841    10002.755      1.00761   -787.64868    2448.1931     10004.16    9350.7746     10653.33   -1141.9683   -667.75414   -579.41327    289.56019 
413250000   4.1325e+08    302.58039    87095.841     9929.719      1.00761    -818.1969    2563.1561    8976.8529    10769.285    10043.019    -635.4703   -254.41882    148.52892    302.57907 
413260000   4.1326e+08    293.09095    87095.841    9875.3043      1.00761   -875.03949    2400.2686    9729.6826    9830.8446    10065.386   -1125.1434    14.457144     -934.867    293.09102 
413270000   4.1327e+08    286.62942    87095.841    9676.4172      1.00761    -859.0704    2344.0296    8483.5717    9620.3013    10925.379   -919.31368     234.6956   -25.996897    286.63028 
413280000   4.1328e+08    299.21386    87095.841     9721.998      1.00761   -888.72904    2455.0028    8594.4342    9926.3698     10645.19   -18.795584    -760.8602     182.8149    299.21424 
413290000   4.1329e+08    293.81737    87095.841    9310.0383      1.00761   -890.71722    2392.7086    9050.2645    9730.1366    9149.7136   -964.20155    643.98616    298.41821    293.81423 
413300000    4.133e+08    295.16675    87095.841    9635.7716      1.00761   -771.62292    2526.8823    8739.4738    10011.069    10156.772   -911.19415   -386.77265    558.99331    295.16704 
413310000   4.1331e+08    296.97368    87095.841    9882.0268      1.00761   -790.15722    2528.5406     10188.68    9797.6453    9659.7551   -1094.7313   -161.33401    -439.1721    296.97294 
413320000   4.1332e+08     297.8502    87095.841    9359.9588      1.00761   -759.47638    2569.0165    8954.7577    10246.944    8878.1744   -201.66543    562.17132   -485.57279    297.84942 
413330000   4.1333e+08    288.77991    87095.841    9632.2779      1.00761   -773.27969    2453.8522    9369.1906     10228.69    9298.9527   -1766.2158    127.98622    -64.79667    288.78187 
413340000   4.1334e+08    297.31009    87095.841    8208.5459      1.00761   -838.34536    2484.1118    6467.9754    9708.4981    8449.1641   -539.20191    5.3413282    254.23976     297.3149 
413350000   4.1335e+08    289.35489    87095.841    8035.7012      1.00761    -810.1796    2423.3778    7851.6544    7945.6128    8309.8363   -1257.5325   -382.87927    825.77832    289.35186 
413360000   4.1336e+08    291.91905    87095.841    9868.6336      1.00761   -813.38746    2448.8245    10116.984    10212.082    9276.8354   -1215.8187   -1148.0903    578.92274    291.92027 
413370000   4.1337e+08    288.71818    87095.841    8837.4133      1.00761   -761.19709     2465.245    6905.7667    9386.3072    10220.166    -1047.303   -76.746384    323.68201    288.72018 
413380000   4.1338e+08    293.08039    87095.841    9865.9304      1.00761     -830.581     2444.609    9340.9951    9718.4846    10538.312   -879.63368   -518.29772   -410.84192    293.07953 
413390000   4.1339e+08    294.01804    87095.841    9313.8646      1.00761   -769.80407    2515.8643    8151.5953    10014.527    9775.4714   -1345.0735    722.16901   -283.31616    294.02157 
413400000    4.134e+08    297.12994    87095.841    9207.6473      1.00761   -875.37324    2445.0707    8311.8955    9611.3034     9699.743   -1439.1991   -189.75939   -475.15518    297.13089 
413410000   4.1341e+08    293.71372    87095.841    10366.372      1.00761   -814.44346    2467.8241    9802.1177    10300.528    10996.471   -1093.1439    172.70515   -24.583364    293.71543 
413420000   4.1342e+08    294.41614    87095.841    9820.6569      1.00761   -798.11659    2492.0006    9093.3835    10187.375    10181.212   -1172.3458   -59.950722   -45.847628    294.41774 
413430000   4.1343e+08    292.69074    87095.841    10531.845      1.00761    -827.8217    2443.0139    9841.7414    11864.455    9889.3391   -92.001101    94.494705    147.63954    292.69111 
413440000   4.1344e+08    302.58208    87095.841    9308.3448      1.00761   -912.97066    2468.4013    9006.0036    9275.4123    9643.6185    67.366996   -337.30976    631.14311    302.58344 
413450000   4.1345e+08    293.47006    87095.841    10206.042      1.00761   -906.78789    2372.7567    9764.2044    10060.732    10793.189   -225.11814   -337.03271    177.92901    293.46802 
413460000   4.1346e+08    294.12824    87095.841    9016.6081      1.00761   -854.42428    2432.4755    8345.9406    9944.3061    8759.5776   -465.88112   -1027.0485   -779.20793    294.12896 
413470000   4.1347e+08    294.86538    87095.841    8727.8804      1.00761   -905.55469    2389.5827    9225.9018    8193.7571    8763.9824   -1951.8724    247.42191    943.02462    294.86672 
413480000   4.1348e+08     294.8577    87095.841    9049.6009      1.00761   -803.92521    2491.1264    8434.2051    8840.2301    9874.3676   -746.35006   -800.72135    -492.6876    294.85524 
413490000   4.1349e+08    295.70814    87095.841    9168.7104      1.00761    -846.5527    2458.0026     7730.299    9941.8383    9833.9938   -899.74053    502.50168   -103.97485    295.71016 
413500000    4.135e+08    290.96952    87095.841    9682.3062      1.00761   -881.34726    2370.2536    9651.2833    9202.9457     10192.69   -1334.6021   -226.15946   -326.65556    290.97003 
413510000   4.1351e+08    286.71713    87095.841    9274.5461      1.00761   -859.51328     2344.567     7647.928    9441.7168    10733.994   -582.08398    133.46402    535.34615    286.71815 
413520000   4.1352e+08    300.53188    87095.841    9898.8885      1.00761   -765.57054    2592.8903    10244.586    9924.5955    9527.4837    -1330.687    167.41481   -428.62917     300.5309 
413530000   4.1353e+08     297.7254    87095.841    8958.3695      1.00761   -852.80172    2474.2966    7780.7568    9838.8605    9255.4913   -2027.8836   -717.79372    -780.2389    297.72659 
413540000   4.1354e+08    291.74473    87095.841    9475.5245      1.00761   -728.68419    2531.5798    8729.1099    9220.3505    10477.113   -1656.6566    58.133878    430.04014    291.74391 
413550000   4.1355e+08    289.91976    87095.841    9582.1591      1.00761   -791.52451    2448.3453    8532.1615    10248.429    9965.8864   -2173.9998    -509.6442    -532.0358    289.91918 
413560000   4.1356e+08    293.42625    87095.841    10020.174      1.00761    -767.6802    2511.3748    9582.1624    10488.098    9990.2608   -1327.9963    520.70763    63.719769    293.42769 
413570000   4.1357e+08    287.72602    87095.841     9026.986      1.00761   -876.92413    2338.4305    8269.8896    9170.4222    9640.6462   -539.93338    500.20565   -492.10617    287.72368 
413580000   4.1358e+08    290.43141    87095.841    8544.9826      1.00761   -812.69078    2432.8967     7177.776     9297.803    9159.3687   -1487.8412    376.47074   -883.22882    290.43468 
413590000   4.1359e+08    297.87795    87095.841    9194.7319      1.00761   -871.59419    2457.2089    7468.4316    10459.022    9656.7417   -597.00325   -354.25339   -413.83358    297.88018 
413600000    4.136e+08    294.82676    87095.841    9097.4379      1.00761   -843.08342    2451.6224    8047.1212    9681.3999    9563.7927   -1116.3681   -118.72132   -812.88087    294.82612 
413610000   4.1361e+08      289.815    87095.841    9655.6919      1.00761   -774.11286    2464.5863     9836.795    8963.2606     10167.02   -1174.8944   -147.14401    41.607242    289.81491 
413620000   4.1362e+08    290.80887    87095.841    9927.6424      1.00761    -776.5892    2473.2164    9124.6033     9992.657    10665.667   -614.64311   -897.69026   -606.99587    290.80421 
413630000   4.1363e+08    293.16306    87095.841    9995.2738      1.00761   -823.68788    2452.4259    9924.7639    9597.1834    10463.874   -785.28749   -95.357448   -148.31031    293.16328 
413640000   4.1364e+08    290.17644    87095.841    9474.4141      1.00761   -826.28063    2416.4576    7803.3078     10135.77    10484.164   -725.92535    541.97918    200.29902    290.17535 
413650000   4.1365e+08    289.54463    87095.841     8817.116      1.00761   -788.67263     2447.005    6704.7779    10301.442    9445.1277   -1316.4893    428.90889   -238.84189     289.5443 
413660000   4.1366e+08    294.18333    87095.841    9048.4831      1.00761   -831.26325    2456.2522    8137.6449    9211.7056    9796.0988   -263.18463   -73.059485    757.05053    294.18205 
413670000   4.1367e+08    292.37428    87095.841    8984.5447      1.00761   -830.82872    2436.4705    9599.7532    8885.2874    8468.5935   -1328.6751   -682.78176   -312.00655    292.37408 
413680000   4.1368e+08    288.24215    87095.841     9640.356      1.00761   -740.24684    2480.8756    9886.7942    9427.2443    9607.0296   -1300.3828   -167.55428    14.854263    288.23958 
413690000   4.1369e+08    294.93523    87095.841    8810.3326      1.00761   -859.52125    2436.3967    8068.2176    8678.9367    9683.8433   -1297.3659   -410.43589   -924.08984    294.93521 
413700000    4.137e+08    295.65591    87095.841     8903.598      1.00761   -884.97765     2418.994     7723.891    9486.7702    9500.1328   -1714.6315    -438.9719    648.36943    295.65916 
413710000   4.1371e+08    297.53122    87095.841    9895.4735      1.00761   -740.87902    2584.0493    8816.5038    10993.228    9876.6887   -360.82023   -85.434743   -29.372457    297.53485 
413720000   4.1372e+08    295.38314    87095.841    9078.7662      1.00761   -783.90015    2517.0232    9321.2215    8678.6386    9236.4385   -1084.3126     -98.0079    634.09907      295.383 
413730000   4.1373e+08    284.48023    87095.841    10110.675      1.00761   -796.75619    2382.3265    9885.6791    10696.936    9749.4094   -1759.7402   -436.76814   -332.28124    284.47927 
413740000   4.1374e+08    295.50971    87095.841    9673.9632      1.00761   -759.24008    2543.0977    7900.6344     10521.31    10599.945   -1577.0164   -752.87356    224.26803    295.50825 
413750000   4.1375e+08    291.81534    87095.841    9618.1567      1.00761   -801.69429    2459.3587    9571.3495    9155.2459    10127.875   -1478.7906   -608.78814    57.278201    291.81617 
413760000   4.1376e+08    291.92252    87095.841    9428.3365      1.00761   -823.23492    2439.0158    8367.7946    9997.1238    9920.0911   -1524.4527    27.989926    149.01329    291.92399 
413770000   4.1377e+08    293.34523    87095.841    9255.5315      1.00761   -793.54747    2484.6022    9481.3937    9066.5653    9218.6354   -1125.4932   -312.72919   -217.55477    293.34429 
413780000   4.1378e+08    287.96812    87095.841    9537.7417      1.00761   -812.45775    2405.6024    8767.5508    10481.484    9364.1907   -156.86039   -712.28486   -630.15034    287.96704 
413790000   4.1379e+08    290.08233    87095.841    9412.5198      1.00761   -824.40373    2417.2828    8438.3816    9433.4851    10365.693   -1297.5219    397.66914    1199.9502    290.08366 
413800000    4.138e+08    289.51977    87095.841    9242.0729      1.00761   -749.16079    2486.2391    8901.8281    8795.3049    10029.086   -1161.6435    766.08587    242.76189    289.52102 
413810000   4.1381e+08    290.28617    87095.841    10184.126      1.00761    -774.4297    2469.5348    9495.8849    9967.7262    11088.768    629.61327   -419.31558     245.5945    290.28426 
413820000   4.1382e+08    300.19362    87095.841    9771.6382      1.00761   -873.60992    2481.0709    8614.3739    10370.127    10330.413   -1430.2921   -115.72237     527.9808    300.19062 
413830000   4.1383e+08    289.09183    87095.841    8963.3767      1.00761   -814.37841    2416.2393    7839.1532    8890.7027    10160.274   -1553.0774   -99.307324    774.26168     289.0935 
413840000   4.1384e+08     294.4006    87095.841    9597.0645      1.00761   -892.98451    2396.9589    10095.037    10016.679    8679.4775   -1397.7356     45.37397    699.53394    294.40052 
413850000   4.1385e+08    291.55044    87095.841    9970.5981      1.00761    -832.3943    2425.6985    10782.085    9251.6084    9878.1006   -859.92489    329.35197    605.07155    291.55209 
413860000   4.1386e+08    295.12313    87095.841    8482.3822      1.00761   -759.60036    2538.4174    7977.4404    7823.5166    9646.1897   -789.30275    182.60525    138.62867    295.12533 
413870000   4.1387e+08    292.96648    87095.841    9921.2583      1.00761   -798.53349    2475.3836    9959.1375    9956.5456    9848.0917   -1187.9762     759.3485     1178.767    292.96678 
413880000   4.1388e+08    290.33077    87095.841    10539.427      1.00761   -780.23025    2464.2327    10511.886    10450.075     10656.32   -1158.4793    268.40193   -365.59653      290.328 
413890000   4.1389e+08    291.94145    87095.841     10026.97      1.00761   -807.86654    2454.5958     9570.747    9887.4058    10622.757   -826.23295    268.36642    457.10479    291.93947 
413900000    4.139e+08    293.99414    87095.841    10351.563      1.00761   -843.67876    2441.7225    9130.1291    10920.253    11004.307    39.003607   -560.64922    766.25055    293.99392 
413910000   4.1391e+08    290.31853    87095.841    8246.5813      1.00761    -851.1638    2393.1622    6716.1356    9384.7235    8638.8848     -507.685    589.83844    105.80652    290.31983 
413920000   4.1392e+08     290.2129    87095.841    10273.799      1.00761   -820.52439    2422.6212    9943.3785    10204.458     10673.56   -1476.0567   -589.98923   -81.850112     290.2122 
413930000   4.1393e+08     292.7285    87095.841    10036.304      1.00761   -794.97215    2476.2855    9835.3825    11110.496    9163.0331   -1050.3173   -486.63832    -250.0513    292.72895 
413940000   4.1394e+08    285.19458    87095.841    9816.4165      1.00761   -842.41643    2344.6492    9407.1582    11367.998    8674.0935   -1561.5028   -182.75349   -237.15143    285.19572 
413950000   4.1395e+08    291.23208    87095.841    9170.3709      1.00761   -954.57968    2299.9554    7828.9381    10100.765    9581.4093   -960.94177    89.307311    31.170051    291.23595 
413960000   4.1396e+08    298.56253    87095.841    9445.4416      1.00761   -897.02074    2439.4325    8895.2828    9583.6243    9857.4177   -489.38417    -190.3183    306.48966    298.56214 
413970000   4.1397e+08    285.67024    87095.841     9315.095      1.00761   -780.32149    2412.0597    9208.9143    9593.1562    9143.2145   -1284.1556    334.70708     -646.125    285.67043 
413980000   4.1398e+08    294.66729    87095.841    9634.4847      1.00761   -859.18128    2433.7424    8194.3486    9971.0095    10738.096   -1378.2678   -683.44236    -1337.618     294.6667 
413990000   4.1399e+08    288.46842    87095.841    9199.4469      1.00761    -747.3685    2476.2825    7837.0909    10069.598    9691.6519   -1204.0946    266.18448    46.331185    288.47328 
414000000     4.14e+08    288.21846    87095.841      9893.54      1.00761   -798.68044    2422.1773    7763.7461    10664.932    11251.942   -1410.5983   -915.02167     1215.055    288.22103 
414010000   4.1401e+08    289.50111    87095.841    9869.3423      1.00761   -759.68486    2475.5065    9538.6558    10794.828    9274.5433   -952.94257   -241.24913    25.255223    289.49942 
414020000   4.1402e+08    300.80122    87095.841    10132.861      1.00761   -768.90307    2592.5677    9345.1161    10768.954    10284.514   -689.53434   -358.12608    8.9977701    300.80273 
414030000   4.1403e+08    286.89427    87095.841     9377.074      1.00761   -878.12732    2327.9324    7862.0785    10090.138    10179.006    -875.8123     -7.59476     4.212619    286.89654 
414040000   4.1404e+08    292.99774    87095.841    8781.6939      1.00761   -798.00143     2476.265    7645.4026    9704.1155    8995.5635    -1150.218    674.05642   -302.59408    292.99826 
414050000   4.1405e+08    289.60763    87095.841    9626.6945      1.00761   -880.97619    2355.4055    9481.6176    9909.0082    9489.4576   -1244.0959     778.7591    96.361348    289.60905 
414060000   4.1406e+08    296.14124    87095.841    10430.451      1.00761   -838.17896    2471.2163    10050.938    10668.534     10571.88   -1119.0847     29.53518   -224.79789    296.13923 
414070000   4.1407e+08    301.56756    87095.841     9748.071      1.00761   -792.61921    2577.4155    9404.0437    10082.267    9757.9025   -569.30902   -1481.0751   -270.77295    301.56466 
414080000   4.1408e+08    291.97598    87095.841    10059.003      1.00761   -796.72126    2466.1269    9498.9526    10692.005    9986.0526   -1575.8461   -501.47282    307.31851    291.97414 
414090000   4.1409e+08    293.36475    87095.841    9524.5469      1.00761   -792.05737    2486.3104    8518.6889    9961.9637    10092.988   -1754.6991    336.81105    148.67379    293.36491 
[...]
609080000   6.0908e+08    288.69234    87095.841    8862.5231      1.00761   -798.95769    2427.1957    8648.1498    9801.1861    8138.2333   -926.10574     320.7175   -1028.4192    288.69572 
609090000   6.0909e+08    302.88764    87095.841     8863.545      1.00761     -753.525    2631.2616    8801.9001    8956.5082    8832.2266   -1631.9979    547.58374    314.88496     302.8907 
609100000    6.091e+08    292.92958    87095.841    10453.475      1.00761    -860.9319    2412.5728    10579.405     10803.71    9977.3102   -1181.5077    26.396798   -278.98997    292.92649 
609110000   6.0911e+08    296.75763    87095.841    9785.5408      1.00761   -712.76734     2603.516    9191.6152    10269.644    9895.3633   -878.20359    211.55021   -106.45713    296.76078 
609120000   6.0912e+08    297.64367    87095.841    10280.875      1.00761   -773.74909    2552.4358    10092.328    10797.401    9952.8955   -1269.1908    7.0327138   -333.45999    297.64277 
609130000   6.0913e+08     287.2709    87095.841     9903.451      1.00761   -784.60389    2425.6647    8551.3166    10162.742    10996.294   -1277.7103    637.19873    54.121898    287.27162 
609140000   6.0914e+08    285.91053    87095.841     8992.107      1.00761    -815.3704    2379.6961    7550.8834     10535.04    8890.3978   -1421.2036     381.3724   -28.669119    285.91093 
609150000   6.0915e+08    293.99143    87095.841    9658.8204      1.00761   -789.58185    2495.7891    9905.6106    9695.6837     9375.167   -1563.2515    891.12123   -126.73702    293.98967 
609160000   6.0916e+08    292.49782    87095.841     8941.989      1.00761   -706.83676     2561.843    8383.7085     9937.993    8504.2654   -1816.6406      262.024    809.15781     292.5005 
609170000   6.0917e+08    297.30479    87095.841    8641.0429      1.00761   -777.60624    2544.7918     8401.706    9856.8171    7664.6055   -1571.8522    48.025587   -493.09379    297.30354 
609180000   6.0918e+08    289.84324    87095.841    9529.7884      1.00761   -747.86063    2491.1541    8612.7373    10420.536    9556.0924    -2468.365    440.83557     -505.409    289.84289 
609190000   6.0919e+08    286.84308    87095.841     9193.778      1.00761   -759.03868    2446.4491    8585.2942    9729.3785    9266.6613   -1735.4909   -389.67083    560.18019    286.84081 
609200000    6.092e+08    298.16199    87095.841     9911.703      1.00761   -921.52298    2410.4543    9552.4485    9743.7845    10438.876   -686.53589    27.078323    855.26784    298.16163 
609210000   6.0921e+08    293.27562    87095.841      9124.06      1.00761   -887.02316    2390.3485    7726.9786    10506.327     9138.874   -753.61121    370.19856    154.22639    293.27377 
609220000   6.0922e+08    288.73284    87095.841    10275.829      1.00761   -738.47216    2488.1337    9038.9409    11267.758    10520.786   -746.86482    59.324607   -1105.4137    288.73583 
609230000   6.0923e+08    297.58461    87095.841    9348.1245      1.00761   -805.75455    2519.7703    8997.9502    10476.645     8569.778   -992.91371    19.582355    974.35633    297.58439 
609240000   6.0924e+08    292.18565    87095.841    8109.3758      1.00761    -762.6384    2502.5529    6962.4368    8956.9871    8408.7035   -836.34564    -232.8772   -114.28374    292.18457 
609250000   6.0925e+08    295.31485    87095.841    10055.852      1.00761   -802.98128     2497.179    9151.9747    10312.444    10703.138   -1005.4416    195.27783     101.3917    295.31348 
609260000   6.0926e+08    295.55025    87095.841    9809.7571      1.00761   -735.45773    2567.3331    8992.6722    10623.472    9813.1266   -1280.3199    181.91707   -338.28006    295.55007 
609270000   6.0927e+08    284.07915    87095.841    9333.9579      1.00761   -801.62471     2372.976    8414.2621     9663.018    9924.5935   -1164.4714    253.12408   -461.65265    284.07939 
609280000   6.0928e+08    296.00584    87095.841    9285.3762      1.00761   -748.94524    2558.9369     8286.926    10241.666    9327.5363   -996.02475   -94.450987    82.626186    296.00273 
609290000   6.0929e+08    294.66798    87095.841    9165.7705      1.00761   -778.95181    2513.9796    8827.4985    9129.7332    9540.0798   -1039.1333    95.332481     350.1462    294.66695 
609300000    6.093e+08    295.93796    87095.841    8564.8072      1.00761   -802.58463    2504.5389    7918.5334    9919.9938    7855.8943   -1017.4924   -1081.0951    401.19446     295.9382 
609310000   6.0931e+08    294.50337    87095.841    9505.1608      1.00761   -834.06279    2457.0291    8053.9578    10641.706    9819.8183   -116.11965   -381.04641    299.75173    294.50376 
609320000   6.0932e+08    291.67061    87095.841    8978.1298      1.00761   -802.97894    2456.4568    8127.0235    10255.429    8551.9367   -868.10621   -404.99045    -590.4053    291.67007 
609330000   6.0933e+08    294.69571    87095.841     8698.122      1.00761   -813.70727    2479.5341    7860.4731    9123.2827    9110.6102   -1425.1614    267.43773    576.30616    294.69513 
609340000   6.0934e+08    294.79999    87095.841    8951.8141      1.00761    -796.0641    2498.3425    8427.1158    10261.796    8166.5303     -418.832   -773.87756    135.05311     294.7988 
609350000   6.0935e+08    289.87542    87095.841    9575.2111      1.00761   -830.93843    2408.4359    9609.0137    9899.1306     9217.489   -1062.4642   -185.80407    -861.9968    289.87506 
609360000   6.0936e+08    289.46714    87095.841    9174.1231      1.00761     -793.506    2441.3057    9059.2508    9681.4757    8781.6427   -1748.5681   -104.36274    138.33605    289.46966 
609370000   6.0937e+08    290.38855    87095.841    9364.4091      1.00761   -777.48081    2467.6278    7217.9247    10217.879    10657.423   -662.16357   -827.77807    349.35125     290.3883 
609380000   6.0938e+08    288.55832    87095.841    9710.7612      1.00761   -753.36543    2471.2902    8435.7901    10613.864     10082.63   -1227.2453   -620.46819   -392.88316    288.55857 
609390000   6.0939e+08     295.0272    87095.841    10111.037      1.00761   -862.09887    2434.8469    8604.9355    11426.576      10301.6   -911.39625   -670.26125    865.80611    295.02717 
609400000    6.094e+08    290.13626    87095.841    8854.7019      1.00761   -837.88716    2404.4021    9158.9384    9247.2609    8157.9063   -500.03213    48.057338    82.031701    290.13922 
609410000   6.0941e+08    290.13061    87095.841    9814.3682      1.00761   -769.86767    2472.3584     8760.904    10269.984    10412.216    -851.8215    31.035424    475.49202    290.13111 
609420000   6.0942e+08     291.7853    87095.841     9626.621      1.00761   -849.93414    2410.7832    9218.2022    10479.187    9182.4739   -677.99678    133.58455   -561.56458    291.78652 
609430000   6.0943e+08    292.81648    87095.841    9628.1556      1.00761   -877.64686     2394.594    8906.6355    9902.1255    10075.706   -1633.0478    155.25666   -171.00182    292.81621 
609440000   6.0944e+08    297.34181    87095.841    9004.9608      1.00761   -897.73195    2425.0797      7686.86    9450.4822    9877.5401   -1878.4744   -529.58888    539.76382    297.34075 
609450000   6.0945e+08     288.8599    87095.841    9097.3544      1.00761   -877.05585      2350.97    8033.8084    9711.2051    9547.0495   -1228.6526   -560.11552    53.794942    288.86056 
609460000   6.0946e+08    295.77629    87095.841         9572      1.00761   -847.87163    2457.4452     9240.696    10834.539    8640.7656   -1195.4913    393.77607    377.03018    295.77705 
609470000   6.0947e+08    298.52602    87095.841    9205.8859      1.00761   -808.41596    2527.6293    8062.5686    10116.512    9438.5766     -720.498    238.50238   -92.375874    298.52877 
609480000   6.0948e+08    293.00561    87095.841     9406.305      1.00761   -824.39388    2449.9605    7749.7963    10287.603    10181.516   -953.39171   -826.85434    28.043228    293.00387 
609490000   6.0949e+08    296.27582    87095.841    9697.0309      1.00761    -853.6693    2457.2298    8800.5232    10840.481    9450.0887   -1339.2319   -594.92456    255.76224    296.27735 
609500000    6.095e+08    293.46237    87095.841    9219.0184      1.00761   -779.07806    2500.3806    8407.5518    8977.7908    10271.713   -1361.7133   -37.855216   -480.44836    293.46615 
609510000   6.0951e+08    291.88015    87095.841    10146.335      1.00761   -833.35652    2428.4207    9906.8513    10569.834    9962.3196   -1167.2464   -369.49757   -357.88252    291.88134 
609520000   6.0952e+08    298.85818    87095.841    10118.273      1.00761    -792.9932     2546.764    10266.107    10017.328    10071.383   -336.60389   -839.26922    109.34981    298.85769 
609530000   6.0953e+08     290.4646    87095.841    9552.0454      1.00761   -830.34873    2415.6097    8015.9585     10584.54    10055.638    -1094.294   -200.60505    970.80812    290.46657 
609540000   6.0954e+08    295.82182    87095.841    8219.0776      1.00761   -802.64451    2503.1812    7491.8056    8287.0632    8878.3639   -838.59094    310.20584   -336.61807    295.82244 
609550000   6.0955e+08    294.44102    87095.841    9200.1463      1.00761   -826.67914     2463.716    8548.6285    10289.637    8762.1732   -904.25908    573.27913   -443.11689    294.44144 
609560000   6.0956e+08    291.76069    87095.841    9683.3377      1.00761   -850.65372    2409.7886    9165.6048    9698.6303    10185.778   -1126.3826   -162.13318     16.43321    291.76201 
609570000   6.0957e+08    297.58336    87095.841    8923.3008      1.00761   -815.35982    2510.1511    7393.1147    10151.564    9225.2232   -682.60204    739.37072    668.08573    297.58525 
609580000   6.0958e+08    295.01756    87095.841    8830.5712      1.00761   -896.52979    2400.3082    7957.9679    9807.6744    8726.0713   -1536.5859   -222.59024    861.23668    295.01993 
609590000   6.0959e+08    289.51023    87095.841    9489.7583      1.00761    -838.0102    2397.2831    8682.0367    10518.318      9268.92    140.15901   -544.01053    4.9512336    289.51129 
609600000    6.096e+08     291.2882    87095.841    9216.3195      1.00761   -796.96229       2458.2    8322.6634    10574.265    8752.0302   -140.64572    -5.352434   -295.12788    291.28697 
609610000   6.0961e+08     296.1647    87095.841    9194.9966      1.00761   -927.43528    2382.2221    7938.9119    9703.9511    9942.1268   -678.05536   -81.977941    735.26199    296.16524 
609620000   6.0962e+08    289.91401    87095.841    8893.8324      1.00761   -792.56215    2447.2433    6594.6394    9378.7582      10708.1   -1179.5039   -132.46086   -49.489281    289.91465 
609630000   6.0963e+08    296.62265    87095.841    9105.4924      1.00761   -879.32963    2435.4454    7885.3922    10027.112    9403.9734   -1581.3276    275.88264   -513.78686    296.62237 
609640000   6.0964e+08    298.28592    87095.841    9397.7826      1.00761   -830.46045    2502.9017    7860.1889    10399.006     9934.153   -442.06733   -553.52529    561.43431    298.28764 
609650000   6.0965e+08    296.36495    87095.841    8913.4194      1.00761   -839.65715     2472.238    8923.9926    9846.1032    7970.1625   -1353.1028     387.4865    668.86354    296.37177 
609660000   6.0966e+08    294.95291    87095.841       8765.7      1.00761   -882.10434    2414.0112    7551.8492    10330.564    8414.6871   -1181.2588    828.65184   -918.15558    294.95508 
609670000   6.0967e+08    299.54507    87095.841    9247.7163      1.00761   -784.58366    2562.8496    8376.8764    10226.525    9139.7479    -1456.584   -423.39518    89.563423    299.54765 
609680000   6.0968e+08    292.66499    87095.841    9028.8637      1.00761   -853.36912    2417.1788    7208.9399    10731.634    9146.0169   -832.03719   -312.70207   -132.26318    292.66559 
609690000   6.0969e+08    288.37941    87095.841    9719.9368      1.00761   -766.89696    2455.7593    7845.3987    10804.085    10510.326   -1500.6592    572.31094    697.25734    288.37994 
609700000    6.097e+08    288.84792    87095.841    8643.3348      1.00761   -778.68463    2449.2073    7141.3748    9438.2318    9350.3978   -1319.9108    480.36076   -600.24257      288.848 
609710000   6.0971e+08    294.94332    87095.841    9444.2725      1.00761   -715.87314    2580.1353    8694.3915    9726.7061    9911.7199   -900.51944    112.17356   -778.45366    294.94322 
609720000   6.0972e+08    292.77845    87095.841    9392.7362      1.00761   -845.77852    2426.0373    7656.6989    10658.335    9863.1748   -1616.3833   -280.75387   -7.7399728     292.7775 
609730000   6.0973e+08    293.77185    87095.841    8657.9963      1.00761   -824.67094    2458.2462    6242.4558    9807.3971    9924.1362   -1888.4758    -5.926807   -47.593138    293.77162 
609740000   6.0974e+08    292.22557    87095.841    9439.0239      1.00761   -790.99116    2474.6462    9072.8769     9999.953    9244.2418   -507.69857    53.947896   -414.84519    292.22858 
609750000   6.0975e+08    293.13596    87095.841    9495.9602      1.00761   -828.71619    2447.0949    8858.1984    10876.276    8753.4066   -1241.7617   -454.44339     23.18412    293.13466 
609760000   6.0976e+08    301.29867    87095.841    9687.6792      1.00761   -786.46847    2580.5613     9607.567     10009.14     9446.331   -834.23187    171.56754      729.986    301.30058 
609770000   6.0977e+08    294.27774    87095.841    9854.3913      1.00761   -767.94647     2520.624    9383.3754    10757.283    9422.5154   -136.52325    407.93954   -908.03656    294.27896 
609780000   6.0978e+08    285.61551    87095.841    9447.7012      1.00761   -791.70683    2400.0627    7899.0367     11161.78    9282.2872    -956.2034    266.39415    883.24352    285.61732 
609790000   6.0979e+08    304.37913    87095.841    9638.6137      1.00761   -758.08842    2643.3657    9380.7375    9708.3224    9826.7812    -511.9279     1016.871   -116.07981     304.3764 
609800000    6.098e+08    293.74684    87095.841    8654.4809      1.00761   -755.84845    2526.7892    7905.8199    9306.3098    8751.3129   -1086.7299   -160.47273   -338.75799    293.75148 
609810000   6.0981e+08    281.79695    87095.841    9483.6003      1.00761   -829.25048    2319.8465     9082.688    10138.681    9229.4318   -1087.3808     -88.5539   -214.74024     281.7981 
609820000   6.0982e+08    293.87853    87095.841    8840.3796      1.00761   -896.37739    2387.7319    7973.5071    9760.4817    8787.1499   -2117.8974    61.098715   -1003.5814    293.87753 
609830000   6.0983e+08    291.29907    87095.841    9723.0002      1.00761   -786.93974     2468.344    8999.4679    10598.142    9571.3911   -1046.3081   -168.16871    627.53668    291.30029 
609840000   6.0984e+08    291.70172    87095.841      10140.2      1.00761   -782.64564    2477.1377    8767.0851    11258.037    10395.478   -450.37324    254.85498    122.36733    291.70308 
609850000   6.0985e+08     286.9656    87095.841    9077.4116      1.00761   -861.80759    2345.0494    8066.3842    9706.0058    9459.8449   -1519.1788    922.31319   -1592.2177    286.96587 
609860000   6.0986e+08    291.52135    87095.841    9017.2582      1.00761   -794.26019    2463.5074    6473.7125     11060.45    9517.6117   -866.67287    181.58035   -1034.7474    291.52276 
609870000   6.0987e+08     292.5325    87095.841    10445.467      1.00761   -801.66561    2467.4017    10019.096    11220.701    10096.602   -342.34671   -625.53825   -1082.4425    292.53264 
609880000   6.0988e+08    297.15973    87095.841    10306.571      1.00761   -808.68679    2512.0901    9622.9677    11371.779    9924.9657   -955.88883    299.93721   -614.64236    297.15926 
609890000   6.0989e+08    294.15162    87095.841    8212.0054      1.00761   -819.49464    2467.6665    6595.1738    9344.0947    8696.7478    -1972.416   -113.15412   -330.58262    294.15093 
609900000    6.099e+08    289.17088    87095.841    9188.0674      1.00761    -834.3385    2397.1625    8135.5181    10119.804    9308.8804   -1527.1047   -440.22292    1016.6877    289.16993 
609910000   6.0991e+08    291.87886    87095.841    9095.6699      1.00761   -781.59294    2480.1699    8366.7567     9618.142    9302.1109   -934.60925    749.39914    315.20242    291.88044 
609920000   6.0992e+08     288.4667    87095.841    9096.6878      1.00761   -822.72946    2400.9023    7769.1413     10103.98    9416.9417   -388.45028   -304.21924    70.211073    288.46613 
609930000   6.0993e+08    289.97608    87095.841    9011.3329      1.00761   -825.15324    2415.3459    8519.5702    10739.189    7775.2399    -1419.229    1056.9116    97.299576    289.97682 
609940000   6.0994e+08      296.009    87095.841    9874.9956      1.00761   -815.56419    2492.3532    7938.0599    10772.285    10914.642    -880.2389    976.29177   -601.76201    296.00821 
609950000   6.0995e+08    297.89646    87095.841    8901.9855      1.00761   -764.65287     2564.357    9043.2939    8987.4967    8675.1657    -601.8099    -348.5157   -926.46834    297.89573 
609960000   6.0996e+08    293.94322    87095.841    9495.4592      1.00761   -796.93392    2487.8983    9809.1941    10495.843    8181.3402   -417.13785    385.86229   -507.37955    293.94423 
609970000   6.0997e+08    291.36156    87095.841    8972.5992      1.00761   -729.64114    2526.3409    8466.3135    8353.6927    10097.791   -1059.3251   -329.32579     549.1336     291.3603 
609980000   6.0998e+08    291.68821    87095.841    8149.2879      1.00761   -767.04537     2492.587     7335.568    9243.1273    7869.1684   -1522.3211    17.427064   -36.367071      291.691 
609990000   6.0999e+08    293.97317    87095.841    10162.028      1.00761   -787.68255    2497.4843    9284.4364      10647.3    10554.349   -1118.3197    162.58708    -257.9137    293.97451 
610000000      6.1e+08    292.16175    87095.841    9466.4665      1.00761   -791.00634    2473.9178    8860.8957    10802.863    8735.6407   -899.21473   -274.24346    96.027833    292.16182 
Loop time of 33610.8 on 48 procs for 100000000 steps with 3750 atoms

Pair  time (%) = 11990.3 (35.674)
Bond  time (%) = 2184 (6.49792)
Neigh time (%) = 6300.3 (18.7449)
Comm  time (%) = 9374.28 (27.8907)
Outpt time (%) = 1.01849 (0.00303026)
Other time (%) = 3760.89 (11.1895)

Nlocal:    78.125 ave 88 max 70 min
Histogram: 3 1 9 10 8 4 5 4 3 1
Nghost:    1450.52 ave 1496 max 1415 min
Histogram: 2 4 6 6 11 12 5 1 0 1
Neighs:    7447.29 ave 8560 max 66Generated thermo.dat
Done!
stress
average  1138.01
square average  1.30329*10^06
number of blocks  600
variance  3.70208047364361507518
pxx
average  8567.67
square average  7.34347*10^07
number of blocks  600
variance  7.03926737428453321757
pyy
average  9891.57
square average  9.78568*10^07
number of blocks  600
variance  4.76846150940391534861
pzz
average  9475.21
square average  8.97924*10^07
number of blocks  600
variance  4.61798222531587201575
xx
average  2181.93
square average  4.76081*10^06
number of blocks  600
variance  .11919801452485132170
yy
average  2183.72
square average  4.76862*10^06
number of blocks  600
variance  .14741325132655702557
zz
average  2182.95
square average  4.76527*10^06
number of blocks  600
variance  .03421744194607968250
xx
average  6849.89
square average  4.69507*10^07
number of blocks  600
variance  7.03645127177045119342
yy
average  8172.39
square average  6.68014*10^07
number of blocks  600
variance  4.73316101212146243490
zz
average  7756.63
square average  6.01781*10^07
number of blocks  600
variance  4.61718584926648438530
pressure, stress.strain, ktensor, virial are all concatenated
averages computed will all accumulated data until now
04 min
Histogram: 3 1 7 11 12 4 2 5 2 1

Total # of neighbors = 357470
Ave neighs/atom = 95.3253
Ave special neighs/atom = 6.26667
Neighbor list builds = 11144909
Dangerous builds = 0
System init for write_restart ...

real	1122m12.308s
user	0m0.078s
sys	0m0.333s
