LAMMPS (7 Aug 2019)
OMP_NUM_THREADS environment is not set. Defaulting to 1 thread. (src/comm.cpp:93)
  using 1 OpenMP thread(s) per MPI task
Reading restart file ...
  restart file = 7 Aug 2019, LAMMPS = 7 Aug 2019
WARNING: Restart file used different # of processors (src/read_restart.cpp:738)
  restoring atom style molecular from restart
  triclinic box = (111.251 111.251 111.251) to (158.749 158.749 158.749) with tilt (0 0 0)
  6 by 4 by 8 MPI processor grid
  restoring pair style lj/cut from restart
  restoring bond style harmonic from restart
  restoring angle style harmonic from restart
  restoring dihedral style multi/harmonic from restart
  restoring improper style harmonic from restart
  3750 atoms
  3625 bonds
  4250 angles
  3875 dihedrals
  750 impropers
Finding 1-2 1-3 1-4 neighbors ...
  special bond factors lj:   0          0          0         
  special bond factors coul: 0          0          0         
  3 = max # of 1-2 neighbors
  3 = max # of 1-3 neighbors
  6 = max # of 1-4 neighbors
  8 = max # of special neighbors
  special bonds CPU = 0.012707 secs
  read_restart CPU = 0.0955579 secs
Neighbor list info ...
  update every 1 steps, delay 0 steps, check yes
  max neighbors/atom: 2000, page size: 100000
  master list distance cutoff = 10.3
  ghost atom cutoff = 10.3
  binsize = 5.15, bins = 10 10 10
  1 neighbor lists, perpetual/occasional/extra = 1 0 0
  (1) pair lj/cut, perpetual
      attributes: half, newton on
      pair build: half/bin/newton/tri
      stencil: half/bin/3d/newton/tri
      bin: standard
Setting up Verlet run ...
  Unit style    : real
  Current step  : 0
  Time step     : 1
Per MPI rank memory allocation (min/avg/max) = 10.2 | 10.32 | 10.92 Mbytes
Step v_dummytime Temp Volume Press Density PotEng TotEng Pxx Pyy Pzz Pxy Pyz Pxz c_myT 
       0            0    288.63823    107159.33   -95.815613   0.81895482   -967.19917    2258.3495   -39.293493   -251.69456    3.5412147   -591.44244    646.70022   -174.96353    288.16925 
    1000         1000    294.48235    107159.33    101.90805   0.81895482   -881.28196    2409.5751   -18.830882   -134.13536    458.69039   -247.72572    203.88607   -573.06691    294.18854 
    2000         2000    295.60732    107159.33    371.74548   0.81895482   -951.86937    2351.5592     317.8491    743.03617    54.351169    39.756183   -326.83796    155.23375    295.36199 
    3000         3000    291.03144    107159.33    656.11557   0.81895482   -931.56818    2320.7247     1003.188    909.33923    55.819495    396.10303   -62.213959    561.46411    290.74038 
    4000         4000    289.34211    107159.33   -72.524756   0.81895482   -899.13831    2334.2762   -419.14699   -559.10456    760.67729    347.93296     453.7147    564.57763    289.20572 
    5000         5000    294.86797    107159.33    43.060541   0.81895482   -1076.7062    2218.4601    96.575346   -527.14494    559.75122   -254.85681    565.10823      235.324    294.39312 
    6000         6000    300.89366    107159.33   -513.13859   0.81895482   -936.64858    2425.8551    788.48047   -898.47604   -1429.4202   -234.59552     -2.10665   -160.56783    300.33837 
    7000         7000    289.01019    107159.33    44.641198   0.81895482   -928.51826     2301.187   -73.991972    232.52639   -24.610826   -452.18711   -94.833493    855.96176    288.51004 
    8000         8000    294.33768    107159.33    87.163334   0.81895482   -951.36523     2337.875    186.25513    5.9423864    69.292488    433.54094    573.69367    311.53972    294.16749 
    9000         9000    292.25568    107159.33    323.47398   0.81895482   -913.81768    2352.1561    586.80566   -491.70198    875.31825   -825.61057    349.21829     440.4984    291.92353 
   10000        10000    296.16025    107159.33   -405.52347   0.81895482   -900.41204    2409.1956    71.627612    285.92905   -1574.1271   -65.068461   -355.90463    290.34655     295.8027 
   11000        11000    289.99993    107159.33    832.11691   0.81895482   -945.31028    2295.4555   -278.17733    1372.3657    1402.1624    45.991732   -543.37801   -239.73041    289.58113 
   12000        12000    293.62482    107159.33   -33.291631   0.81895482   -988.84405      2292.43    29.404889   -232.28744    103.00766   -65.631126    74.371918   -259.20293     293.2364 
   13000        13000    289.50531    107159.33   -179.46881   0.81895482   -914.99085    2320.2475   -508.85836    250.96939   -280.51746   -34.224283    18.184653   -594.41527    289.23767 
   14000        14000    289.68952    107159.33    92.662558   0.81895482   -845.80931    2391.4875    738.91197    84.114426   -545.03872    192.91989   -546.88502    494.83887    289.28981 
   15000        15000    292.69393    107159.33   -21.311263   0.81895482   -882.61951    2388.2518    209.66566    165.44035   -439.03979     463.4587    208.69831   -708.83994    292.39592 
   16000        16000    292.11705    107159.33    561.54243   0.81895482   -911.63662     2352.788    537.11963   -484.85294    1632.3606    -677.9241   -166.58177    127.22924    291.58978 
   17000        17000     282.3194    107159.33   -347.04642   0.81895482   -851.63037     2303.305    191.93684   -909.58475   -323.49135   -243.71573   -70.955488    460.16538    281.91518 
   18000        18000    291.97786    107159.33    398.66904   0.81895482   -870.27286    2392.5963    960.35654    136.38793    99.262635   -182.97162    224.67506    560.94819     291.5224 
   19000        19000    284.70131    107159.33    16.386059   0.81895482   -829.06569    2352.4877   -397.48254    702.37442    -255.7337   -1046.3889    280.01652   -336.65591    284.47945 
   20000        20000    292.76493    107159.33    -31.51643   0.81895482   -891.74484    2379.9199    -65.29703    227.54753   -256.79979   -453.87046   -356.10614     601.8809    292.60104 
   21000        21000    292.11677    107159.33   -671.32713   0.81895482   -830.68221    2433.7393   -562.52545   -772.62382   -678.83212   -68.953738   -3.5741357    193.62161      291.709 
   22000        22000    293.25018    107159.33    227.90362   0.81895482   -889.01617    2388.0713    -506.0407    1071.1219    118.62965    151.82868   -422.35565    148.10023    292.67716 
   23000        23000    293.52276    107159.33   -137.07581   0.81895482   -844.52806    2435.6055   -92.583825   -116.27249   -202.37113     -567.186   -224.36055    286.48765    292.87234 
   24000        24000    293.88292    107159.33    635.64516   0.81895482   -873.41205    2410.7463    167.26682    1283.4601    456.20858   -397.05877    -166.3634    10.099064    293.57952 
   25000        25000    301.65612    107159.33    228.65187   0.81895482   -880.06438    2490.9599   -362.57564    1109.4671   -60.935872    292.03531    199.52868   -254.76199    301.39099 
   26000        26000    292.31389    107159.33   -294.81405   0.81895482    -973.2356    2293.3887   -407.47607    -267.6371   -209.32897    266.37016   -315.18087    768.18641    291.92809 
   27000        27000    303.34457    107159.33    181.32317   0.81895482   -930.11398    2459.7789    184.90641    204.45186    154.61125    -78.63788    58.516557   -251.03035    303.18703 
   28000        28000    291.30897    107159.33    140.33919   0.81895482   -934.77328    2320.6211   -45.771542    422.62639     44.16272   -59.756146   -284.64841   -462.85136    291.01799 
   29000        29000    292.49602    107159.33    743.97519   0.81895482   -870.96065     2397.699    284.19697     1354.198    593.53061   -299.73839    604.94272   -19.959456    291.91506 
   30000        30000    294.99374    107159.33   -255.51514   0.81895482   -878.43202    2418.1398   -69.961322    362.54303   -1059.1271   -962.89414   -293.91571    641.87221    294.50909 
   31000        31000     290.9037    107159.33    0.6611882   0.81895482   -906.59289    2344.2725    11.583243    507.81227   -517.41194   -624.86596    332.15799   -54.702004     290.4973 
   32000        32000    296.38124    107159.33    208.00834   0.81895482   -850.82337    2461.2539    502.79708   -172.09765    293.32559    -270.9926    239.15135    495.23547    295.95347 
   33000        33000    289.25714    107159.33     281.6564   0.81895482    -880.8938    2351.5712    516.36957      88.2012    240.39843   -596.67954   -216.60947    286.13478    288.84635 
   34000        34000    297.23737    107159.33    417.36117   0.81895482   -870.67311    2450.9714    673.02049    450.48254    128.58047    298.02284    327.15924    282.03268    296.82889 
   35000        35000    289.70933    107159.33    105.12742   0.81895482   -931.02746    2306.4908   -217.94498    682.63389   -149.30664   -518.87238    134.65847   -256.38211    289.12013 
   36000        36000    296.50366    107159.33    262.13955   0.81895482   -910.66802    2402.7773    386.10623     456.3008   -55.988399   -442.87682   -65.620019   -447.61499    296.02547 
   37000        37000    295.92936    107159.33    41.119895   0.81895482   -884.53599    2422.4914   -341.61287    837.51753   -372.54497    151.28783   -76.792225   -620.70538    295.41749 
   38000        38000    292.01127    107159.33    264.58426   0.81895482   -905.12167    2358.1209    4.5244394    385.05758    404.17076   -595.83344   -400.65554    76.046615    291.69018 
   39000        39000    283.31347    107159.33    -126.6319   0.81895482   -800.66852    2365.3756   -155.05252     258.7435   -483.58667   -750.61115   -199.75799   -142.22059    282.88545 
   40000        40000    294.48611    107159.33    197.33833   0.81895482   -900.00616    2390.8929   -556.24601    668.59496    479.66603   -114.46774   -203.92169   -181.20704    294.13876 
   41000        41000    292.53478    107159.33   -7.4684757   0.81895482   -874.38485     2394.708   -353.91915   -672.67363    1004.1874   -533.84144    -384.1069    556.01934    291.94814 
   42000        42000    286.24524    107159.33     601.0765   0.81895482   -832.09833    2366.7085    73.189515    1321.3053    408.73472   -47.884336    147.13327   -472.56081    285.76867 
   43000        43000    297.26025    107159.33    190.56835   0.81895482   -800.28151    2521.6187   -674.20519    907.66437    338.24586   -638.26981    321.15904    445.68494    296.73103 
   44000        44000    293.02065    107159.33   -300.08135   0.81895482   -826.49924    2448.0232   -380.36875    -286.2293     -233.646    54.286844   -575.09033   -493.32263    292.55068 
   45000        45000    295.30213    107159.33    613.66334   0.81895482   -862.63511     2437.383    1363.0874    562.43798   -84.535378   -724.24047   -136.20382     634.7044    294.88995 
   46000        46000    295.02885    107159.33    51.214544   0.81895482   -795.00703    2501.9572    475.13251    197.98629   -519.47516   -377.10018    640.73292   -399.54223    294.62293 
   47000        47000    296.26918    107159.33   -478.77424   0.81895482    -820.7061    2490.1188   -1040.9915   -143.94017   -251.39105   -588.74666    711.97273   -140.42319    295.91813 
   48000        48000    294.47645    107159.33   -167.48896   0.81895482   -932.74367    2358.0474      839.852   -898.31038    -444.0085   -423.42234   -56.665421    162.57821    294.05601 
   49000        49000     299.9204    107159.33   -310.60409   0.81895482   -890.75613    2460.8714   -1119.3485    203.46193   -15.925706   -355.65588    315.68615   -13.793863    299.48246 
   50000        50000    297.33759    107159.33  -0.95802203   0.81895482   -852.14592    2470.6186   -223.82461    189.32197    31.628567    17.406531    204.47478    95.102284    296.82767 
   51000        51000    295.74515    107159.33   -14.235506   0.81895482   -878.22073    2426.7481    -275.4449   -124.61968    357.35806   -192.63311    29.307668    618.74398    295.36483 
   52000        52000    290.72559    107159.33   -808.86346   0.81895482   -759.79712    2489.0778   -1581.9512   -220.28703   -624.35218   -261.95159   -163.16198    634.07325    290.27099 
   53000        53000    288.19189    107159.33    761.95049   0.81895482     -844.448    2376.1128    595.96763     474.9381    1214.9457   -54.089502    178.03095    753.07109    287.76275 
   54000        54000     292.0178    107159.33    324.69905   0.81895482   -820.26645     2443.049    255.73803     553.1296    165.22953    109.71167     73.23228    293.70869    291.35292 
   55000        55000    293.95986    107159.33    798.66997   0.81895482   -798.09443    2486.9237     1465.198    153.36842    777.44349   -336.36525     347.3096    320.61457    293.44138 
   56000        56000     287.2139    107159.33    228.45269   0.81895482   -823.73711    2385.8946    829.58134    374.18434   -518.40761   -138.42605   -394.28527   -283.96036    286.68986 
   57000        57000    294.31849    107159.33   -489.02456   0.81895482   -785.39293     2503.633    33.060748   -97.877531   -1402.2569   -181.82319    86.314242    402.84171    293.70509 
   58000        58000    287.82179    107159.33    121.76636   0.81895482   -838.73898    2377.6859   -176.86021     668.2989   -126.13962   -152.36999    52.997805    102.65179    287.23636 
   59000        59000    293.99924    107159.33    -391.3766   0.81895482   -862.55915     2422.899   -326.12884   -52.529739   -795.47122   -318.07057    111.60087    13.755763    293.36651 
   60000        60000     298.6398    107159.33    308.75715   0.81895482   -820.82172     2516.495     591.3424     703.9809   -369.05186   -206.17539    336.87441   -104.34068    298.06985 
   61000        61000    286.51734    107159.33   -6.8739567   0.81895482   -823.24364     2378.604    195.76877    510.13293   -726.52356   -360.01358     15.12811    83.408417    285.96702 
   62000        62000    289.22747    107159.33     137.5529   0.81895482   -880.04044     2352.093    499.00064    499.44079   -585.78273   -197.02784    115.53788    6.2661373    288.75837 
   63000        63000    292.84618    107159.33    411.77492   0.81895482   -806.54457    2466.0282   -87.267827    1152.0061     170.5865   -368.81904    21.256666   -165.96119    292.47529 
   64000        64000    296.56423    107159.33   -113.55938   0.81895482      -790.34    2523.7821    466.03741   -272.72425    -533.9913     350.1534    703.89321   -324.77353    296.00101 
   65000        65000    288.05988    107159.33    556.75456   0.81895482   -830.03604    2389.0495   -333.63775    1254.1353    749.76611   -1020.8073    194.70464    601.44218    287.64446 
   66000        66000    287.24691    107159.33   -349.48609   0.81895482   -761.62759     2448.373   -180.60296   -1074.1059    206.25063   -72.329937    -396.1154    -161.9464    286.60104 
   67000        67000    294.49336    107159.33    504.27374   0.81895482   -835.05145    2455.9286    349.07652    1031.5425    132.20221   -435.06348   -327.61125    379.55341    293.87834 
   68000        68000    290.42138    107159.33    1437.5633   0.81895482   -771.44612    2474.0293     977.2035    1217.1377    2118.3487   -964.13977    107.07116   -19.215596    289.69198 
   69000        69000    295.24613    107159.33    190.01535   0.81895482   -846.27141    2453.1208    275.09182    247.64178    47.312444   -760.33227    216.08504    158.90189     294.6409 
   70000        70000    297.88267    107159.33    416.80927   0.81895482   -834.41769     2494.438    484.35643    678.37865    87.692735   -1176.6749   -145.08579   -12.787343    297.43596 
   71000        71000    296.80639    107159.33    344.65211   0.81895482    -799.2038    2517.6244    263.85055    252.65226    517.45351   -62.904546   -1093.9772    108.76609    296.33239 
   72000        72000    295.23474    107159.33    791.88467   0.81895482   -833.56095    2465.7041    1068.9028    620.32848    686.42274   -468.00561   -400.88211   -76.083184    294.61174 
   73000        73000    292.72725    107159.33   -239.37212   0.81895482   -841.26781    2429.9758   -504.16107    -164.2757   -49.679577   -857.56683    585.28055     207.4759    292.12424 
   74000        74000    299.34421    107159.33      208.838   0.81895482   -775.66677    2569.5218   -487.97752    947.87932    166.61222   -476.48072    486.48827    -345.1327    298.64268 
   75000        75000    297.30736    107159.33   -1134.9919   0.81895482   -852.50757    2469.9191   -970.09514   -1073.9832   -1360.8974    92.837128    105.02435    118.85227    296.67535 
   76000        76000    287.18526    107159.33   -65.830853   0.81895482   -808.87578    2400.4358    461.25925   -60.919189   -597.83262     -115.007    105.78819    283.31074    286.52895 
   77000        77000    297.92091    107159.33    866.80221   0.81895482   -817.33847    2511.9447    626.69302    126.53789    1847.1757   -1142.4369    381.81786   -109.63905    297.37168 
   78000        78000    294.40103    107159.33    159.09397   0.81895482   -866.54722    2423.4011    286.74727    666.99413    -476.4595   -241.84565   -171.17401    440.30993    293.67722 
   79000        79000    296.83829    107159.33    634.00999   0.81895482   -753.44077     2563.744    527.34867    164.60957    1210.0717   -591.92877    405.59369   -285.73907    296.02797 
   80000        80000    293.69881    107159.33    -371.3578   0.81895482   -846.61583    2435.4851   -414.28881   -25.161154   -674.62345    -746.5592    488.37502    28.122744    292.95927 
   81000        81000    293.19323    107159.33    314.75929   0.81895482   -727.74875    2548.7023   -177.33251   -144.33456    1265.9449   -719.29701    1044.2841   -20.012138    292.69201 
   82000        82000    290.94552    107159.33    1069.7421   0.81895482   -791.30751    2460.0252    1141.3666    1250.8433    817.01636    340.60979   -485.75136    -161.6022     290.3435 
   83000        83000    291.79437    107159.33    1357.6326   0.81895482   -760.03289    2500.7858    1409.7635    1813.1203     850.0139   -232.82634    322.70756   -178.57364    291.05513 
   84000        84000    292.91353    107159.33    376.65451   0.81895482   -808.89724    2464.4281    916.11085    983.19531   -769.34263    -362.1226   -327.67869     237.1652    292.25535 
   85000        85000    295.78224    107159.33    240.58609   0.81895482   -747.12748    2558.2559    285.37738    78.002313    358.37858   -677.78953    807.17737    305.98313     295.2324 
   86000        86000    290.17755    107159.33    746.16231   0.81895482   -785.89728    2456.8534    1203.1484    31.690135    1003.6484    -640.5781   -181.99374    452.33968     289.5111 
   87000        87000    283.05638    107159.33    648.28076   0.81895482   -809.75849    2353.4126    1281.2586   -51.237089    714.82082    396.00707    255.11049    909.28208    282.33534 
   88000        88000    296.79615    107159.33    143.86737   0.81895482   -729.21543    2587.4985    -92.01709    177.33814    346.28107   -471.97787    -339.6947    6.5303828    296.05892 
   89000        89000    286.53721    107159.33   -200.93575   0.81895482   -826.24285    2375.8267   -790.15092    473.21864   -285.87496   -1021.3439   -12.699984    -51.95074    285.77172 
   90000        90000    298.69357    107159.33    520.63079   0.81895482   -789.38977    2548.5279    121.05786    57.117103    1383.7174    -312.5358   -514.96306   -212.35491     298.0159 
   91000        91000    295.82757    107159.33    515.97485   0.81895482   -784.22393     2521.666    1479.6515    311.67724   -243.40415   -1018.0794      91.8627   -496.75222    295.09092 
   92000        92000    291.34814    107159.33    52.917926   0.81895482   -882.11558    2373.7165    652.14647   -351.55798   -141.83471   -205.73061   -106.92489    44.121585    290.47052 
   93000        93000    289.31354    107159.33     174.6695   0.81895482   -735.56093    2497.5344   -179.11302    650.47755    52.643975   -707.29001   0.50187335   -2.8368291     288.6011 
   94000        94000    293.38126    107159.33    745.03482   0.81895482   -851.01268    2427.5396    463.93231    1417.6101    353.56201   -559.16891   -204.02646   -194.92591    292.74951 
   95000        95000    283.06838    107159.33    855.81408   0.81895482   -853.69772    2309.6075    1235.1131    420.01288    912.31629   -398.55352   -136.57825    329.13192    282.55497 
   96000        96000     295.0309    107159.33    366.88602   0.81895482   -773.82017    2523.1669   -200.28095    629.82341    671.11561   -77.594968   -529.95566   -20.840922    294.48053 
   97000        97000    289.37362    107159.33    376.26734   0.81895482   -788.44367     2445.323    361.24987   -161.46141    929.01358   -739.06065    317.12477    25.455599    288.62159 
   98000        98000    288.84795    107159.33    617.81581   0.81895482   -817.33239    2410.5598    1050.8182    285.23301    517.39619    90.486524   -280.63202    76.538599     288.1668 
   99000        99000    292.74055    107159.33    2.6914702   0.81895482   -783.95212    2487.4402    381.24734    -138.4164   -234.75653   -735.07787   -161.31878   0.47854447    292.05659 
  100000       100000    291.06925    107159.33    63.276012   0.81895482   -887.48459    2365.2308   -761.86567    373.29941    578.39429    41.709338     80.47962    122.75744    290.32278 
  101000       101000    295.26514    107159.33      252.818   0.81895482    -767.5049    2532.0999   -155.63885    266.83774     647.2551   -398.72873    88.093757    424.93334    294.70239 
  102000       102000      288.739    107159.33    960.58948   0.81895482   -765.03924    2461.6355    111.99561    757.54457    2012.2283   -99.875491   -400.31971   -60.696526    288.10608 
  103000       103000    291.43749    107159.33    204.51898   0.81895482    -774.0522    2482.7784    881.47181    -975.2624    707.34752   -335.34562    -443.5927    254.33707    290.78746 
  104000       104000    291.89765    107159.33     57.00296   0.81895482    -888.9081    2373.0647    922.84817    106.01209   -857.85138    -578.8397    441.68728   -510.17116    291.40344 
  105000       105000     297.8918    107159.33   -118.34943   0.81895482   -793.64941    2535.3084   -1059.0869    120.63848    583.40012   -505.68635     98.48391   -538.12249    297.17666 
  106000       106000    297.27349    107159.33    194.72632   0.81895482   -817.16833    2504.8799    -225.5528    188.95524    620.77651   -1161.1223   -106.94778    28.163463    296.64372 
  107000       107000    296.79438    107159.33    561.25307   0.81895482   -850.27896    2466.4152    1056.4523    144.15511    483.15184   -342.81915    301.03061    165.94705    295.95518 
  108000       108000    291.80982    107159.33   -28.711961   0.81895482   -791.91126    2469.0801    4.2628567   -180.47597     90.07723   -288.41704     294.5881   -225.65378    291.19087 
  109000       109000    290.92263    107159.33    233.65626   0.81895482   -812.28339    2438.7935    542.67467   -73.521978    231.81608   -573.70361    79.126036   -6.8427743    290.24833 
  110000       110000    288.93646    107159.33   -30.338575   0.81895482   -703.32386    2525.5575   -393.36107    479.54981   -177.20446   -971.26699    162.92222    811.31248    288.02785 
  111000       111000     292.6633    107159.33    48.922832   0.81895482   -889.44797    2381.0811    434.83396   -490.85609    202.79063    567.75311   -112.73391    389.38428     292.0006 
  112000       112000    296.97913    107159.33    671.02387   0.81895482   -765.84465     2552.914   -488.70445    1203.2816    1298.4945   -407.62106     3.044949   -3.1332997    296.21039 
  113000       113000    287.01115    107159.33    13.830999   0.81895482   -807.05011    2400.3158   -167.62092   -34.839317    243.95324   -717.26356    204.53459     147.6354    286.35323 
  114000       114000    297.69477    107159.33    521.51439   0.81895482   -819.39504     2507.361    568.92643    124.66213    870.95462    -478.4764     131.9183   -177.73159    297.05077 
  115000       115000    291.13283    107159.33    902.58818   0.81895482   -764.71184    2488.7141    964.95515    634.07059    1108.7388   -440.08773   -724.04515    173.85737    290.49782 
  116000       116000    296.31546    107159.33   -114.40559   0.81895482    -725.6367    2585.7054   -628.20629    611.85746   -326.86793   -403.34069   -487.12725   -264.49837    295.69845 
  117000       117000    292.94269    107159.33    182.21445   0.81895482   -745.01996    2528.6313   -728.74523    638.57767    636.81091   -475.67919   -233.61212    28.478788    292.10747 
  118000       118000    290.42946    107159.33    380.04945   0.81895482   -722.28091    2523.2849   -112.20205    458.93478    793.41564   -568.34552   -154.53415    800.19701    289.53434 
  119000       119000    291.67665    107159.33    292.83608   0.81895482   -815.66381    2443.8394    429.97695    488.99169   -40.460403   -65.283474    173.23733    811.78058     290.8124 
  120000       120000    289.22069    107159.33     53.32172   0.81895482    -792.6332    2439.4244   -305.31345     929.7424   -464.46379   -58.698995    293.24902   -158.83515    288.52989 
  121000       121000    289.92928    107159.33    311.95193   0.81895482   -849.52419     2390.452   -217.24143    758.96926    394.12795   -379.30011    54.524345    351.00509    289.13273 
  122000       122000    300.77644    107159.33    653.04887   0.81895482   -828.96745    2532.2263    739.29151    265.12305    954.73206   -1321.3936    -168.1313   -16.889505    299.85592 
  123000       123000    289.11874    107159.33    761.84983   0.81895482   -781.48545    2449.4329    209.70452    751.25269    1324.5923   -415.18638    106.27047    820.26557    288.29904 
  124000       124000    293.40742    107159.33   -255.31606   0.81895482   -820.30435    2458.5403   -309.58473    136.52729   -592.89075   -357.11796     559.5849   -730.29596    292.71954 
  125000       125000    294.59698    107159.33   -316.93067   0.81895482   -785.84947    2506.2885   -590.53656   -389.52977    29.274318    -1127.497    -423.5092   -124.23815    294.11979 
  126000       126000    290.83896    107159.33    626.82025   0.81895482   -802.22184    2447.9201    891.35172    941.36092    47.748117   -13.864786    7.5441487     147.0102    289.80975 
  127000       127000    297.21054    107159.33   -226.61253   0.81895482   -866.09239    2455.2523    340.03808   -191.05214   -828.82352   -478.42961    283.24928   -73.929825    296.25965 
  128000       128000    290.13563    107159.33   -217.24474   0.81895482   -868.55875    2373.7234   -1292.6476    203.75229    437.16109   -425.65811   -251.67625    6.9842705    289.29503 
  129000       129000     287.1814    107159.33   -506.64831   0.81895482   -868.22845      2341.04    -698.9915   -382.83044     -438.123   -418.85024    646.06848   -55.023702    286.55999 
  130000       130000    294.65992    107159.33     221.2107   0.81895482    -690.5124    2602.3289    738.05587    257.40971   -331.83347    423.96015    595.96441    407.39744    293.87956 
  131000       131000    288.84579    107159.33    41.830098   0.81895482   -870.87062    2356.9975    517.57194    206.48338   -598.56503   -510.83682    359.61794    702.97246    287.92293 
  132000       132000    292.39552    107159.33    137.80764   0.81895482   -789.19334    2478.3432   -474.08995   -157.37884    1044.8917    140.68372   -318.34525   -598.35864    291.55283 
  133000       133000    289.54625    107159.33   -677.02869   0.81895482   -868.59999    2367.0958   -896.68582   -415.65644   -718.74381   -1187.1877   -101.02649    10.966305    288.76769 
  134000       134000    288.86993    107159.33    161.62993   0.81895482   -761.12736    2467.0105    126.66063    397.68358   -39.454404   -756.30411   -509.29807    339.69348    288.08579 
  135000       135000    298.24064    107159.33    461.57449   0.81895482   -862.06346    2470.7926   -38.077523     724.3893    698.41169    20.958769    245.09057    450.46896    297.31855 
  136000       136000    290.37148    107159.33    464.45735   0.81895482   -892.61441    2352.3033      840.405    607.95512   -54.988056   -171.49277     339.7658   -472.24602    289.28705 
  137000       137000    297.53918    107159.33    149.91677   0.81895482   -819.43461    2505.5826    410.98308   -274.72759    313.49481   -160.38578   -435.51258   -186.04088    296.82522 
  138000       138000    294.31441    107159.33    234.03215   0.81895482   -891.17836    2397.8019    346.32441    9.1586452    346.61341   -226.38195   -461.52035    338.25425    293.52763 
  139000       139000    290.08531    107159.33   -622.41108   0.81895482   -778.17058    2463.5493   -1131.8336   -377.99628   -357.40332   -903.68822   -135.07514   -77.406141    289.11966 
  140000       140000    292.88206    107159.33    372.29348   0.81895482   -877.96527    2395.0084    259.49845   -219.97298     1077.355    446.64813    660.53493   -222.91853    292.10099 
  141000       141000    291.82024    107159.33   -4.8494532   0.81895482   -777.43942    2483.6684    107.06238   -131.84355    10.232813    -614.4672    265.02715   -474.15164    290.91845 
  142000       142000    289.80395    107159.33   -464.56323   0.81895482   -895.76521    2342.8104   -1123.6953    64.304968   -334.29937   -373.94728    -514.5738   -473.89995    288.84823 
  143000       143000    295.55097    107159.33   -9.4490122   0.81895482   -772.71504    2530.0839   -35.124644   -316.92581    323.70342   -455.16977    191.33355    654.14179     294.6004 
  144000       144000    291.65086    107159.33    636.82369   0.81895482   -862.09845    2397.1165    234.91804    1981.9045   -306.35142   -61.463173   -303.49669   -442.36887    290.71827 
  145000       145000    298.26316    107159.33    151.72178   0.81895482     -879.864    2453.2437    611.20314   -97.359835   -58.677951   -315.97926    66.086175   -250.72375    297.66155 
  146000       146000    288.29587    107159.33    817.52183   0.81895482   -778.40722    2443.3156    775.87901    928.67014    748.01634   -325.91962    400.20031   -227.06858    287.34142 
  147000       147000    296.29274    107159.33   -805.72159   0.81895482   -885.02998    2426.0583   -565.35839   -902.63466   -949.17172    316.91247   -422.23684   -136.98789    295.29725 
  148000       148000    295.46626    107159.33    187.30005   0.81895482   -795.27046    2506.5818   -530.75944    562.19752    530.46207   -34.348007   -54.958028   -6.6336749     294.4586 
  149000       149000    292.82562    107159.33    288.77642   0.81895482   -820.14697     2452.196    38.042572    369.35778    458.92891   -208.51099   -491.19363    131.60061    291.93733 
  150000       150000    288.13008    107159.33     843.9079   0.81895482   -807.39031    2412.4797    819.00361    660.30444    1052.4156   -453.26375    514.48135     918.0923    287.37252 
  151000       151000    292.72358    107159.33    -180.5013   0.81895482   -801.18123    2470.0214    151.82458    134.19892   -827.52742    -816.2682    258.16454    495.90621    291.97738 
  152000       152000    288.09652    107159.33    590.89243   0.81895482   -779.72799     2439.767    211.98386    1018.5614    542.13204   -476.30638    638.20648   -410.59863     287.1831 
  153000       153000    292.40108    107159.33    56.912758   0.81895482   -848.49157    2419.1072     346.0817    231.13275   -406.47617    813.25588   -410.51095   -177.56184    291.57127 
  154000       154000    287.01755    107159.33    538.38263   0.81895482   -825.18451     2382.253    1135.3594   -33.680477    513.46893   -196.03065    296.35414   -225.11488    286.15229 
  155000       155000    291.87906    107159.33    679.81571   0.81895482   -874.02743    2387.7376   -51.819158    1652.6337     438.6326   -615.63978   -51.838386    96.668734    290.97226 
  156000       156000    302.33581    107159.33    458.66628   0.81895482   -766.94267    2611.6772   -478.53037    310.69049    1543.8387   -473.84049   -45.903025   -202.87371     301.3824 
  157000       157000    293.52954    107159.33    45.176547   0.81895482   -853.57178    2426.6375   -511.73118   -260.77697    908.03779   -890.18917   -447.93643   -299.77738    292.63873 
  158000       158000    299.02454    107159.33    37.973119   0.81895482     -866.111    2475.5053   -565.74854    417.05533    262.61257   -670.24135   -578.28872    367.37316    298.31146 
  159000       159000     293.0501    107159.33   -16.870473   0.81895482   -766.00449    2508.8471    -108.0072   -130.05713    187.45291   -465.20262    206.09476    -537.1252    292.24298 
  160000       160000    298.42494    107159.33   -98.351577   0.81895482   -802.13909    2532.7766   -341.15189    477.19204   -431.09488   -623.80624   -262.18294    -312.9738    297.44196 
  161000       161000    288.17239    107159.33   -296.30754   0.81895482   -841.56124    2378.7816   -495.24687    600.14526   -993.82101   -932.41331    4.4767511   -315.63203     287.4485 
  162000       162000    296.46734    107159.33    585.60131   0.81895482   -869.34987    2443.6895    692.49885    763.97403    300.33106   -784.41809    88.220525   -448.11398    295.70843 
  163000       163000    287.24055    107159.33    431.40296   0.81895482   -852.70815    2357.2214   -44.722352    245.89178    1093.0394    178.33114   -464.91654    646.28022     286.3837 
  164000       164000    297.43181    107159.33    1344.5699   0.81895482   -779.25576    2544.5616    1394.9959    871.01908    1767.6948   -725.52664   -76.148626   -139.90507    296.46237 
  165000       165000    290.79243    107159.33   -267.66864   0.81895482   -841.34145    2408.2805   -1318.2949    1035.9817   -520.69271    167.16123    57.704678   -268.54833    289.77698 
  166000       166000    297.20683    107159.33     774.1622   0.81895482   -804.03978    2517.2635    551.63353    512.01956    1258.8335   -360.33791    291.76299    99.618012    296.13448 
  167000       167000    293.62498    107159.33    446.98686   0.81895482   -780.07707    2501.1988    567.65935    479.51623    293.78502    404.43805   -241.97777    79.269948    292.67451 
  168000       168000    286.42588    107159.33      480.115   0.81895482   -806.94185    2393.8837   -132.88784     744.7231    828.50974   -635.60917   -69.990296    411.88987    285.79129 
  169000       169000    293.13079    107159.33     396.7554   0.81895482   -720.17556    2555.5777    478.93183    360.19913    351.13524    -777.9241    -75.70792    681.84696    292.26221 
  170000       170000    289.32393    107159.33    451.57235   0.81895482   -907.12154    2326.0898   -62.412395    622.40214    794.72732    815.64881    39.302096    276.89456    288.37149 
  171000       171000    292.91941    107159.33    373.22206   0.81895482   -742.83698     2530.554    67.544125    1142.6779     -90.5558   -289.69234   -222.52091   -207.18205    291.80898 
  172000       172000    296.76126    107159.33     124.5932   0.81895482   -781.22821    2535.0957   -52.004171   -53.452987    479.23675   -781.36278    487.82565   -321.47409     295.8627 
  173000       173000    288.73418    107159.33    435.55055   0.81895482   -929.46879     2297.152    351.96011    259.11805     695.5735    56.063384   -110.51854    625.20701    287.92004 
  174000       174000    296.11355    107159.33    700.46437   0.81895482   -826.33633    2482.7494    662.62614    783.81025    654.95673    -272.5586    -75.78872   -267.72285    295.17236 
  175000       175000    291.76886    107159.33    587.76581   0.81895482   -770.87039    2489.6632   -372.36611    1128.3722    1007.2913   -564.46889   -225.34661   -133.08956    290.78735 
  176000       176000     294.0778    107159.33    754.67519   0.81895482   -854.38852    2431.9476    165.19729    766.22269    1332.6056    20.292614    -6.304733   -116.95478    293.10733 
  177000       177000    296.02854    107159.33    201.54868   0.81895482   -815.39995    2492.7359   -527.97261    350.06476    782.55389     460.7395    724.68082    345.81083    294.94641 
  178000       178000    301.17968    107159.33    836.91736   0.81895482   -749.24802    2616.4521    538.42071    841.88226    1130.4491   -117.22622   -137.85006    117.10676    300.08831 
  179000       179000    291.77822    107159.33    323.26639   0.81895482   -815.25643    2445.3818    115.22456    138.22321     716.3514    90.054502   -308.29037   -162.27121    290.82315 
  180000       180000    297.20473    107159.33    298.96344   0.81895482   -755.32271     2565.957    41.465601     636.2727    219.15201   -934.68202   -194.76529    377.82126    296.45718 
  181000       181000    292.09063    107159.33   -114.66492   0.81895482   -777.01233    2487.1171    148.94579   -314.68507   -178.25549   -793.88089   -8.1273602   -129.02992    291.14311 
  182000       182000    287.59378    107159.33   -16.382729   0.81895482   -835.55244    2378.3244    500.58646    335.27104    -885.0057    80.981252   -177.71833   -339.24963    286.41935 
  183000       183000    295.87416    107159.33   -350.44789   0.81895482   -771.35196    2535.0586    17.596308    -208.6886   -860.25138   -216.43066   -175.75804    1.6201107    294.63252 
  184000       184000    298.41359    107159.33    838.61106   0.81895482   -799.35228    2535.4365    412.58702    722.32363    1380.9225   -379.61578    246.94496   -128.16031    297.45404 
  185000       185000    293.27436    107159.33   -495.92853   0.81895482    -798.3552    2479.0024    -810.5612   -434.58383   -242.64056   -682.62338   -139.37692   -559.33014    292.26947 
  186000       186000    287.27698    107159.33     369.0049   0.81895482   -794.55287    2415.7837    280.72588    1039.6196   -213.33079   -981.25645   -255.28309     202.0972    286.35689 
  187000       187000    295.38372    107159.33    61.888409   0.81895482   -826.24412    2474.6857   -858.71764    679.09573    365.28713    12.179997   -438.26492    255.52201    294.59868 
  188000       188000    286.69014    107159.33   -673.04018   0.81895482   -841.80903    2361.9696   -881.02886   -121.33809   -1016.7536   -905.04411    453.72022    412.65188    285.61506 
  189000       189000    289.65064    107159.33    705.11178   0.81895482   -851.42033     2385.442    436.58437    1434.6736    244.07735   -62.709669    568.62481   -78.989792    288.68072 
  190000       190000    288.56107    107159.33   -605.47936   0.81895482   -795.73579    2428.9505    -761.3986   -24.687411   -1030.3521   -157.80311   -746.94862    526.99305    287.57703 
  191000       191000     296.5477    107159.33   -258.89365   0.81895482   -758.07385    2555.8635   -1246.1477    261.46421    208.00254   -207.74623   -437.85419   -325.96751    295.47103 
  192000       192000    298.04293    107159.33     60.39833   0.81895482   -913.20634    2417.4403    243.33553    143.85461   -205.99515   -830.92361   -637.69569    374.83431    297.11212 
  193000       193000     292.8457    107159.33   -212.10482   0.81895482    -738.3803    2534.1871    349.59049    69.425331   -1055.3303   -476.28468   -41.741681    262.00669    291.86394 
  194000       194000    288.84837    107159.33    886.37155   0.81895482   -794.15891    2433.7381    515.74925    1439.9432     703.4222   -95.173229   -391.27161     503.6158    287.90545 
  195000       195000    295.23096    107159.33    410.63669   0.81895482   -812.56208    2486.6607   -175.32197    34.894011     1372.338   -280.73947    41.859954   -346.37183    294.33297 
  196000       196000    293.12133    107159.33    883.29951   0.81895482   -850.57622    2425.0713    1153.4657    1093.6641    402.76877   -762.50201    371.29392    6.4941785    292.17897 
  197000       197000    293.50199    107159.33    245.40162   0.81895482    -812.5727    2467.3287    699.89512    56.937105    -20.62736    99.338778    65.516805    373.35777    292.43718 
  198000       198000    294.15577    107159.33   -1064.9926   0.81895482   -780.78535    2506.4221   -1798.7794   -754.67066    -641.5276   -882.84237   -334.73954   -207.66169    293.08887 
  199000       199000    293.54276    107159.33    192.35568   0.81895482   -887.81199    2392.5451   -357.20084    384.76808    549.49981   -415.58581    33.470102   -69.101353    292.47531 
  200000       200000    300.02395    107159.33    1192.3725   0.81895482   -808.93217    2543.8526    1210.5525    455.04959    1911.5155   -68.079808   -228.16557    306.71355    299.10629 
  201000       201000    294.76607    107159.33    364.99884   0.81895482   -798.71538    2495.3122    692.01431    213.62782     189.3544   -890.93105   -208.12067    587.52823    293.73096 
  202000       202000    291.12272    107159.33    621.96128   0.81895482   -851.07062    2402.2424     219.3923    1551.2965    95.195057   -629.61491    82.762238    369.61822     290.0993 
  203000       203000    293.13584    107159.33    120.76832   0.81895482   -840.50707    2435.3026   -685.48137    1075.6884   -27.902074   -177.95873   -788.47953    -303.0774     292.0283 
  204000       204000    298.58581    107159.33    230.05128   0.81895482   -842.77392    2493.9395    407.25748     267.7482    15.148163   -571.59962   -181.03796    219.59436    297.45137 
  205000       205000    292.91461    107159.33    698.40543   0.81895482   -802.20541     2471.132    747.55965    823.16822     524.4884    338.05304   -460.40433    222.07166    292.03527 
  206000       206000    293.40351    107159.33    223.87479   0.81895482   -723.39641    2555.4045   -7.5046648   -126.89168    806.02071    496.26427   -137.46463   -705.29113    292.61416 
  207000       207000    287.01148    107159.33   -131.74609   0.81895482   -841.48008    2365.8896   -623.80238    922.56785   -694.00375   -717.20551    -219.8573   -451.43773    286.15853 
  208000       208000     291.7809    107159.33   -445.86869   0.81895482   -790.16402    2470.5042   -475.46614   -440.94669   -421.19325    -791.2128   -387.59988    -152.8657    290.57113 
  209000       209000    290.08669    107159.33   -403.25298   0.81895482   -777.90859    2463.8266   -714.19077    260.51853    -756.0867   -1074.4016    642.30049   -436.58729    288.96981 
  210000       210000    282.91694    107159.33    -302.1656   0.81895482   -812.74802    2348.8649    105.39347   -665.95086    -345.9394     66.34953   -757.02033   -7.5710899    281.79308 
  211000       211000    295.77313    107159.33    -372.4217   0.81895482   -744.96145    2560.3201   -231.31525   -828.38546   -57.564374   -854.80116     303.4272    625.03327    294.73921 
  212000       212000    289.64402    107159.33    498.18639   0.81895482   -925.09128    2311.6971   -53.974031    1142.2062    406.32704   -1191.2615    21.125628   -217.69488    288.72887 
  213000       213000    292.34948    107159.33    295.02033   0.81895482   -753.61627    2513.4058   -627.93907    498.92332    1014.0767   -40.500825    183.14793    170.55151    291.51487 
  214000       214000    286.70309    107159.33    -539.0623   0.81895482   -802.54989    2401.3734   -543.29181   -1371.0885    297.19339   -706.62274   -408.34371   -510.59397    285.64166 
  215000       215000    288.62141    107159.33   -903.30072   0.81895482   -784.88562    2440.4751   -1553.3174   -660.20201   -496.38278   -651.00657   -99.915414     243.0944     287.6458 
  216000       216000    298.05547    107159.33    972.38877   0.81895482   -860.69549    2470.0913    1333.0362   -16.189285    1600.3194    -554.3962    753.09122    -214.5591     296.9056 
  217000       217000    292.51301    107159.33    476.70696   0.81895482   -951.54053     2317.309   -148.23819    637.08252    941.27654   -1160.5343   -233.85806   -116.47176    291.46865 
  218000       218000    294.16338    107159.33    -126.4416   0.81895482   -842.93278    2444.3598   -854.99321    131.63383    344.03459   -358.33268    675.73659   -515.33892    293.09764 
  219000       219000    298.76193    107159.33   -82.983422   0.81895482   -875.33049     2463.351   -256.40108   -105.50986    112.96067    144.87555     20.46873    268.27714    297.72648 
  220000       220000    293.30221    107159.33    653.68776   0.81895482   -836.25304    2441.4158    472.61561    255.94449    1232.5032    458.68284   -813.38487    78.565018    292.39698 
  221000       221000    292.79486    107159.33    379.83453   0.81895482   -843.52636    2428.4728     642.7663   -509.75676    1006.4941   -968.14899   -23.856884    350.24763    291.73725 
  222000       222000    291.35452    107159.33    153.67625   0.81895482   -841.00152    2414.9018   -502.89894    251.87543    712.05226   -131.78526    48.859772    44.391701    290.25554 
  223000       223000     296.5681    107159.33      139.003   0.81895482   -840.14593    2474.0194    44.863752    6.0622701    366.08297    59.681973    470.26923    358.07122    295.43424 
  224000       224000    296.16123    107159.33    368.42856   0.81895482   -790.48091    2519.1376    701.93601    539.80015   -136.45047   -926.94706    3.1598688    643.01476    294.92759 
  225000       225000    296.22852    107159.33     148.3356   0.81895482   -847.36238    2463.0082   -307.33186    783.81029   -31.471631    818.68692   -247.52731   -144.01531    294.96878 
  226000       226000     292.7574    107159.33     -154.259   0.81895482   -786.22465     2485.356    259.25975    177.13688   -899.17364   -499.55274    173.79174    287.92125    291.62835 
  227000       227000      292.604    107159.33    59.040615   0.81895482   -811.13852    2458.7278   -409.00363    256.46135    329.66413   -304.44074    142.14629   -99.885143    291.58338 
  228000       228000     300.9228    107159.33    258.78528   0.81895482   -844.94138     2517.888   -94.591469    122.88189    748.06543   -590.48351   -688.24022    572.45628    299.82489 
  229000       229000    290.82528    107159.33   -664.45586   0.81895482   -807.12478    2442.8643   -599.57376   -1098.8182   -294.97565    -393.7961    125.33429   -208.54889    289.68813 
  230000       230000    292.72142    107159.33    586.37572   0.81895482   -756.68557    2514.4929    805.39425    772.60501    181.12791   -71.415137    199.25596   -323.82757      291.725 
  231000       231000    287.07332    107159.33    204.01263   0.81895482   -808.33952    2399.7211    498.90079    237.67727   -124.54016   -128.10802    432.64254    1026.8374    286.14812 
  232000       232000    301.80011    107159.33   -138.30274   0.81895482   -812.93799    2559.6954   -215.17066    438.59586   -638.33344   -1084.1799    154.85271    442.74491    300.68949 
  233000       233000    286.94833    107159.33     27.23536   0.81895482   -863.06582    2343.5981   -625.01574    121.73425    584.98757   -335.06235   -240.33345    856.50285    285.71775 
  234000       234000    294.07358    107159.33    470.30859   0.81895482   -797.43421    2488.8548   -415.62614    1040.2945    786.25738   -461.00468    742.92753    158.38005    292.93831 
  235000       235000    291.94928    107159.33    305.46599   0.81895482    -806.1555    2456.3943     481.4712    368.12879    66.797995   -171.62397   -503.83584    257.52897    290.86757 
  236000       236000    293.38257    107159.33     17.75891   0.81895482    -861.6367    2416.9302   -107.87024   -69.571427    230.71839   -431.41768   -451.53271   -788.57001    292.27335 
  237000       237000    292.81577    107159.33   -28.253095   0.81895482   -805.01373    2467.2191   -608.44205    743.65463   -219.97186   -47.244025    233.66321    82.646302    291.79766 
  238000       238000    285.81239    107159.33    318.79919   0.81895482   -800.33051    2393.6392   -84.051377   -122.76508     1163.214   -334.53242    727.25502   -221.23427    284.86764 
  239000       239000    289.19566    107159.33    81.951068   0.81895482   -802.26634    2429.5116   -876.54357    282.49217     839.9046   -824.79051   -218.20578   -942.82388    288.04902 
  240000       240000    297.02304    107159.33   -349.00482   0.81895482   -700.04482    2619.2045   -886.65238    140.35523   -300.71731   -486.45718    207.29399    127.25032    295.83752 
  241000       241000    288.26792    107159.33   -569.90986   0.81895482   -828.80365    2392.6068   -1012.8786    -273.5322   -423.31877   -453.71749    -318.4281    346.01475    287.36924 
  242000       242000    294.87811    107159.33   -283.90755   0.81895482   -780.14583    2515.1338     83.78061   -94.603472   -840.89978    46.392692   -154.87385    480.23894    293.56745 
  243000       243000    300.10878    107159.33    209.17023   0.81895482   -813.53977    2540.1929    -837.0638     1230.422    234.15248   -646.17082    49.387127   -311.89317    298.58242 
  244000       244000    292.74725    107159.33   -230.97951   0.81895482   -883.34791    2388.1193   -954.43725    129.37753     132.1212   -690.69437    57.473881   -280.09062    291.58212 
  245000       245000    294.02701    107159.33    861.28843   0.81895482   -709.43303    2576.3355    381.37529    1053.3542    1149.1357    -442.2299   -224.84098     -433.845    292.98976 
  246000       246000    294.09373    107159.33   -180.19385   0.81895482   -849.98072    2436.5334   -363.37342    332.57203   -509.78015    195.51959   -262.41824    162.66387    293.18871 
  247000       247000    288.62895    107159.33    162.01172   0.81895482   -811.13262    2414.3123    -460.2958    805.54699    140.78399    197.89169    148.18446   -510.95243    287.44763 
  248000       248000    297.01645    107159.33    1057.5898   0.81895482   -795.02064    2524.1551    1002.4015    1590.9232    579.44469    894.65814   -83.597438    235.99937    295.78054 
  249000       249000     293.4161    107159.33    112.78634   0.81895482   -828.33344    2450.6082   -238.61043    502.91201    74.057445   -139.74865    473.55757   -209.94908    292.28251 
  250000       250000    289.82803    107159.33    183.64363   0.81895482   -868.98909    2369.8556    22.162622    349.26351    179.50474    525.60363    138.43415   -163.45123    288.57401 
  251000       251000    290.67628    107159.33    241.41089   0.81895482   -821.99312    2426.3309    247.16656   -79.775086     556.8412    63.546014   -462.52127   -38.447962    289.49922 
  252000       252000    296.10163    107159.33   -308.23152   0.81895482   -820.41823    2488.5344   -598.75301   -848.92791    522.98635   -789.30133     7.141578     561.9499    294.97115 
  253000       253000    292.03478    107159.33    684.16488   0.81895482   -836.27026     2427.235    570.31106    757.91518     724.2684    364.30984    -99.28501    122.07621    290.94892 
  254000       254000    292.63533    107159.33    619.57092   0.81895482   -801.57763    2468.6389    975.31863    511.54158    371.85254   -392.97183   -118.93836   -348.51589    291.32475 
  255000       255000     292.2448    107159.33    808.82877   0.81895482   -768.78394    2497.0683    1304.7415    773.42076    348.32405   -306.17574   -340.39096   -254.44889    290.85633 
  256000       256000    290.17256    107159.33    190.33357   0.81895482    -741.8832    2500.8116   -89.759873    856.41321   -195.65262   -1055.5718    474.49551    3.0671196    288.94569 
  257000       257000    297.62948    107159.33    690.51485   0.81895482   -825.98923    2500.0371    376.01916    1105.6767     589.8487     64.66423   -49.423021    228.40069    296.61282 
  258000       258000    287.37781    107159.33    802.27455   0.81895482   -850.23077    2361.2326    1215.0984    395.60624    796.11899   -528.61641    124.64938    452.82804    286.38547 
  259000       259000     293.6859    107159.33    -345.3964   0.81895482   -838.82891    2443.1278   -84.850099   -521.02045   -430.31865   -514.76406    2.0191332    222.19301    292.52054 
  260000       260000    295.31539    107159.33   -947.81003   0.81895482   -845.20938    2454.9569   -1251.5989   -720.22588   -871.60527   -356.19428    374.98489    111.49378    294.05609 
  261000       261000    302.80762    107159.33   -499.42551   0.81895482   -872.31039    2511.5819   -360.55799   -193.52024   -944.19831    -227.6624    171.60964   -235.59178      301.716 
  262000       262000    283.73395    107159.33   -22.741266   0.81895482   -905.33582    2265.4072   -237.89893   -257.65665    427.33178    111.77358   -98.945528    436.43327    282.72223 
  263000       263000    294.35187    107159.33    -357.6844   0.81895482   -684.63449    2604.7644    -958.4124    61.433087   -176.07389    24.906276   -432.00233   -436.41227    293.24309 
  264000       264000    293.75627    107159.33    120.25715   0.81895482   -854.53825    2428.2048   -830.75721    108.58034    1082.9483   -688.32205    174.67383   -82.302687    292.63577 
  265000       265000    293.01957    107159.33    467.40538   0.81895482   -869.87687    2404.6335    448.05452   -109.15768    1063.3193   -503.62777    36.648205    103.33266    291.72766 
  266000       266000    295.34897    107159.33    7.9831213   0.81895482   -941.14156       2359.4    172.31064    239.02306   -387.38433   -373.02776   -236.24208   -54.962691    294.32643 
  267000       267000    296.12519    107159.33   -485.60384   0.81895482   -937.67398    2371.5419   -816.12698   -629.15636   -11.528165    92.380191   -62.821995    396.12646    295.18012 
  268000       268000    296.73788    107159.33    501.47993   0.81895482   -862.82214    2453.2405     543.5539    262.35158     698.5343    -930.6737   -734.96208     1.959266    295.75995 
  269000       269000    291.79774    107159.33   -529.80107   0.81895482   -914.47159    2346.3848   -411.54602    -501.4307   -676.42649    121.00553   -310.37441    606.31528    290.80596 
  270000       270000    293.86574    107159.33   -17.662991   0.81895482    -816.3806    2467.5858    504.11248   -227.81166    -329.2898   -256.07874    8.2527583   -325.38645    292.75322 
  271000       271000    280.97569    107159.33     77.00023   0.81895482   -845.03741    2294.8819   -204.11621    -32.74734    467.86424    -91.17866    295.62108   0.76246877    279.69431 
  272000       272000    292.12214    107159.33    411.19156   0.81895482   -738.40026    2526.0812    -164.4049    1308.9085     89.07113   -152.51245   -277.62909    259.93047    290.87315 
  273000       273000    295.04215    107159.33    286.34341   0.81895482   -926.65741    2370.4554   -4.2779853    475.62749    387.68071   -496.93974   -610.60573     -81.7991    293.98529 
  274000       274000    291.10269    107159.33    105.37296   0.81895482   -768.67138    2484.4178     627.5935    -400.8231     89.34848   -785.77368   -143.87684    139.26877    289.92772 
  275000       275000    287.84825    107159.33    717.87873   0.81895482   -877.10252    2339.6181    916.81789    420.39436    816.42393   -593.13764   -164.44138    208.39077     286.7649 
  276000       276000     292.3661    107159.33   -90.353704   0.81895482   -935.82168    2331.3861   -246.73235    326.58178   -350.91055   -114.33802    61.858947   -385.00883    291.16056 
  277000       277000    297.29092    107159.33    419.13631   0.81895482    -771.0931    2551.1499   -377.11518    288.67247    1345.8516   -968.28765   -105.87187   -33.508267     296.0721 
  278000       278000    296.39658    107159.33    92.617478   0.81895482   -890.64369     2421.605   -330.05932   -680.40739    1288.3191    124.22491   -283.41746   -147.95625    295.33388 
  279000       279000    291.59385    107159.33   -251.86385   0.81895482   -883.12497    2375.4529     453.1954   -404.63445   -804.15249    -393.8921    14.523896    51.662611    290.28516 
  280000       280000     291.6849    107159.33   -246.79955   0.81895482    -803.4939    2456.1015   -209.93109    399.15238   -929.61993   -533.04187   -160.05064    322.31979    290.46635 
  281000       281000    291.52352    107159.33    831.59842   0.81895482   -799.67137    2458.1205     669.2499    753.94497    1071.6004    -121.1143   -235.29879   -249.02452    290.31176 
  282000       282000    294.24895    107159.33   -147.31908   0.81895482   -868.66616    2419.5826    -1415.699    1271.3272   -297.58546   -467.07773   -262.50169    58.528871    292.97153 
  283000       283000     289.4129    107159.33   -520.22881   0.81895482   -778.98419    2455.2214   -983.61112   -35.135945   -541.93936   -232.94311    0.1850704    289.45885      288.193 
  284000       284000    283.92143    107159.33    608.77838   0.81895482   -824.00846    2348.8296    650.20454    358.84832    817.28228   -157.80807    50.440258    -60.53387    282.65429 
  285000       285000    297.32458    107159.33    298.66546   0.81895482    -874.3784    2448.2407    549.38713    44.260763    302.34849    -559.6324   -341.79768    77.532771    296.06367 
  286000       286000    298.42327    107159.33    1291.9528   0.81895482   -862.22675    2472.6703    1006.3696    1814.5471    1054.9417   -651.51263   -589.51991   -759.61616    297.13088 
  287000       287000    289.62731    107159.33   -876.75505   0.81895482   -854.02522    2382.5765   -1101.2368   -798.42804   -730.60032   -822.56422    99.480335    433.67602    288.46832 
  288000       288000    290.53267    107159.33    386.68751   0.81895482   -857.39886    2389.3202   -310.03204    1199.8761     270.2185    68.672856    109.50343    244.77025    289.32334 
  289000       289000    290.80593    107159.33    113.61066   0.81895482   -793.67219    2456.1006   -690.02326    70.658104    960.19714    -76.53166    202.98595    179.55681    289.64606 
  290000       290000    290.20421    107159.33   -346.41563   0.81895482   -898.20958     2344.839   -204.62979    92.238865   -926.85595   -169.57956   -122.76804    40.392437    289.12119 
  291000       291000    291.63773    107159.33   -70.549766   0.81895482   -913.84621     2345.222   -393.07796    290.13502   -108.70636   -92.769134   -357.95283   -181.16175    290.35932 
  292000       292000    292.22241    107159.33    11.614976   0.81895482   -862.69395    2402.9081    744.18148   -71.792196   -637.54435   -124.55248    294.16409   -24.350303    290.96616 
  293000       293000    292.50364    107159.33   -90.506427   0.81895482   -864.44374    2404.3011    368.92641   -549.41577   -91.029923   -366.79526    100.95823    -573.4197    291.16504 
  294000       294000    299.07019    107159.33   -140.70391   0.81895482   -838.55682    2503.5695   -541.33994    309.50288   -190.27468   -227.05846    232.19794   -45.194308    297.65402 
  295000       295000    295.22281    107159.33   -85.089271   0.81895482   -883.23288    2415.8989    217.29087    22.837109    -495.3958   -128.06583   -297.64383    333.17095    294.03578 
  296000       296000    294.99409    107159.33   -729.07501   0.81895482   -915.49209    2381.0836   -407.31449   -1350.7086   -429.20192   -554.29666     257.5641   -280.21058    294.07556 
  297000       297000    294.87811    107159.33    444.86695   0.81895482   -857.68473    2437.5949    375.33268   -158.25493    1117.5231   -427.98619    11.018063    30.539979     293.7652 
  298000       298000    294.98091    107159.33    845.47961   0.81895482   -931.65455    2364.7739    1303.8275    704.11765    528.49366     85.00821   -6.4424546    90.495679    293.92281 
  299000       299000    292.20763    107159.33    234.97168   0.81895482   -744.45925    2520.9776    517.28462    582.07453    -394.4441    5.1163425   -11.581292   -135.94863    290.92223 
  300000       300000    291.94116    107159.33   0.15356135   0.81895482   -833.75367    2428.7054   -534.98299    486.06418    49.379501   -275.00114   -444.41318   -180.69497    290.82346 
  301000       301000    291.33659    107159.33   -269.57776   0.81895482   -884.40324    2371.2998    -850.6374    429.29587   -387.39175    192.40693   -282.29614   -35.887337    290.23926 
  302000       302000    294.39239    107159.33   -488.68115   0.81895482   -899.05201    2390.7997   -1531.9855   -143.93509    209.87716   -983.94536    183.56349    -218.5294    293.09497 
  303000       303000    296.02919    107159.33   -224.14815   0.81895482   -874.43494    2433.7082   -254.27912     132.4414   -550.60673   -241.81818   -331.22653   -667.26561    294.75707 
  304000       304000    292.28635    107159.33   -516.17057   0.81895482   -868.35952    2397.9571   -807.41486   -115.74039   -625.35646   -367.81682   -292.41057    121.25247    291.02388 
  305000       305000    287.68455    107159.33   -334.93683   0.81895482   -839.10817     2375.783   -347.62362     96.94083   -754.12769   -175.68198   -760.77814   -599.13103    286.38739 
  306000       306000    290.87223    107159.33    38.703414   0.81895482   -881.65193    2368.8618   -286.53214    505.66935   -103.02697    -463.0179      44.3642     78.15284    289.75095 
  307000       307000    296.45666    107159.33    221.48763   0.81895482   -804.34849    2508.5716    172.69166   -106.47481    598.24605   -296.96159   -356.51036   -197.40239    295.28864 
  308000       308000    286.26751    107159.33    1164.5864   0.81895482   -866.36326    2332.6925    1452.3269    448.99854    1592.4337   -74.683399    431.61432    116.21209     284.9917 
  309000       309000    292.54199    107159.33    447.51132   0.81895482    -832.1633    2437.0101   -238.18538    960.63771    620.08163   -586.04195   -378.95172   -716.10045     291.2765 
  310000       310000    300.06908    107159.33    439.57133   0.81895482   -747.93103     2605.358   -182.52943    1051.8568    449.38664   -503.86084    98.007082   -340.97315    298.76105 
  311000       311000    293.39679    107159.33    39.555384   0.81895482   -904.68426    2374.0416    99.719617   -66.514565      85.4611   -248.00368   -26.188686   -438.98621     292.0678 
  312000       312000    293.87022    107159.33    614.21358   0.81895482   -858.78257    2425.2338   -295.44025    1062.8267    1075.2543    255.01651   -536.10854    316.09141    292.53399 
  313000       313000    298.77169    107159.33    167.58334   0.81895482    -859.7735    2479.0172     1217.217   -667.38667   -47.080326   -1289.0589   -128.06719   -505.46491    297.57299 
  314000       314000    285.82209    107159.33   -66.394853   0.81895482   -837.94047    2356.1376    -784.6833    687.50586   -102.00712   -491.28351    160.04877   -56.270247    284.37821 
  315000       315000      293.336    107159.33   -671.15177   0.81895482   -823.03389    2455.0126   -882.30166   -110.81563    -1020.338   -1063.7115   -494.34243    12.030231    292.09913 
  316000       316000    294.20463    107159.33    1307.7221   0.81895482   -929.70422    2358.0493    669.78057    1472.3462    1781.0396    290.04594   -937.10316   -446.60082    293.16633 
  317000       317000     304.0429    107159.33    669.63538   0.81895482   -800.00795    2597.6887    618.24083    361.62923    1029.0361   -118.44356    -146.6804   -36.604296    302.79977 
  318000       318000     286.0935    107159.33   -767.89598   0.81895482   -901.66508     2295.446   -1435.2971   -403.19696   -465.19386   -647.38123   -19.328559    163.21999    285.02362 
  319000       319000    296.21031    107159.33    690.23729   0.81895482   -804.45384    2505.7133    265.39961    580.72251    1224.5897    -604.6773   -1090.4287   -243.40698    294.95745 
  320000       320000     296.1565    107159.33   -88.934445   0.81895482   -859.34663    2450.2191   -505.08262   -16.718016     254.9973   -684.87309    -237.7439   -412.61347    295.03016 
  321000       321000    294.15219    107159.33   -131.63844   0.81895482   -797.18927    2489.9781   -183.41144   -136.17767   -75.326217   -788.14979    360.69068   -255.46761    292.89218 
  322000       322000    293.99288    107159.33    3.5094272   0.81895482   -810.16343    2475.2237   -540.65874    478.05806    73.128962    393.98918   -187.49015     2.665878    292.69368 
  323000       323000     288.6555    107159.33    190.63712   0.81895482   -778.79317    2446.9485    453.26388    64.302054    54.345411    26.312178    192.59395    119.15129    287.36179 
  324000       324000    290.38794    107159.33    58.803286   0.81895482   -818.02015    2427.0816    104.35075   -178.08736    250.14647    -478.3646    251.38902    294.34787      289.098 
  325000       325000    291.07141    107159.33   -520.15426   0.81895482   -857.91124    2394.8283   -748.55909   -692.62299   -119.28069   -541.34597    195.01619    751.22338    289.69898 
  326000       326000    294.32107    107159.33    377.40926   0.81895482   -758.81237    2530.2423    902.35161   -148.65499    378.53115    167.20542   -611.72076   -399.74236    292.97954 
  327000       327000    288.57609    107159.33    169.43206   0.81895482   -795.10402    2429.7502    -377.1096    370.72855    514.67724    404.53805   -109.17844    105.09602    287.26775 
  328000       328000    298.15945    107159.33    537.98039   0.81895482   -845.96973    2485.9791    812.08692   -91.078803    892.93305   -622.29275   -208.14048     352.5761    296.89233 
  329000       329000    295.88897    107159.33     1005.517   0.81895482   -873.08403    2433.4921    1714.4117    656.65402    645.48529   -728.76424    -280.1463    79.788311    294.66075 
  330000       330000    296.76334    107159.33   -68.769839   0.81895482   -868.50727    2447.8399   -282.30449    31.027197    44.967775   -922.17203    284.32914   -474.19367    295.35935 
  331000       331000    287.76841    107159.33   -123.63382   0.81895482   -857.23691    2358.5914     126.6631    22.113671   -519.67821    127.41242   -142.39061    1029.2494    286.42676 
  332000       332000    296.30637    107159.33    355.13336   0.81895482   -828.82199    2482.4186    205.56026     783.4571    76.382715   -467.71452   -26.657737   -84.306411    295.00171 
  333000       333000    286.23458    107159.33    325.03231   0.81895482   -766.87602    2431.8117    206.95982    369.73064    398.40646   -808.95755   -649.72934   -388.89031    284.83507 
  334000       334000    288.92862    107159.33    605.41423   0.81895482   -831.95904    2396.8348    1137.4764    245.39728    433.36899   -72.063957    -173.0813   -301.97556    287.48863 
  335000       335000    297.59088    107159.33     93.00568   0.81895482   -780.94603     2544.649   -423.90611    265.53773    437.38542   -439.63669   -580.34544    39.989694    296.34341 
  336000       336000    294.52924    107159.33    498.46861   0.81895482   -901.21385    2390.1671   -206.48517    867.16124    834.72976   -873.02884   -364.56753   -166.31214    293.09728 
  337000       337000    292.01219    107159.33    222.59296   0.81895482   -841.83145    2421.4214   -177.26839    103.42951    741.61776    232.45158    177.14289    113.63894    290.65041 
  338000       338000    292.64252    107159.33    -211.5823   0.81895482    -830.1469      2440.15   -430.05433    333.00439   -537.69696   -396.56841    40.040252    375.93758    291.32565 
  339000       339000    295.34194    107159.33    783.50222   0.81895482   -816.91042    2483.5525    1008.7532    777.83638    563.91704   -365.56284    126.79085    206.19961    294.12407 
  340000       340000    295.57569    107159.33    667.37159   0.81895482   -862.67122    2440.4039    701.43727    931.42461    369.25289    279.57769   -329.12746   -106.34779    294.39808 
  341000       341000    290.38172    107159.33    456.01732   0.81895482   -849.58728     2395.445    120.85907    814.84186    432.35103   -1086.0288   -79.755031   -225.26583     289.1316 
  342000       342000    294.45837    107159.33   -403.26253   0.81895482   -851.89719    2438.6918   -1388.2896   -209.75881    388.26082    51.960382    458.78079    132.05722    293.09114 
  343000       343000     290.4211    107159.33    405.11426   0.81895482   -827.13855    2418.3337    398.89236    635.95737    180.49306   -480.39772   -305.69936    21.532354    289.10703 
  344000       344000    299.82239    107159.33    455.95641   0.81895482   -822.28415    2528.2481    218.07852    93.760465    1056.0302    174.47692    13.400922   -332.43743    298.35539 
  345000       345000    291.31771    107159.33    1285.4804   0.81895482   -803.79143    2451.7006    594.55404    1356.4899    1905.3972     255.2929   -454.92173    41.391844    290.03416 
  346000       346000    290.68314    107159.33    241.89578   0.81895482   -809.34385    2439.0568    332.45615    477.42187   -84.190676    698.69749   -102.72725    427.17916    289.52925 
  347000       347000    292.38785    107159.33    668.75206   0.81895482   -883.40218    2384.0487    179.98196    1059.7131    766.56113   -1111.2325   -18.177205    595.68004    291.06058 
  348000       348000    291.18604    107159.33     217.1657   0.81895482   -794.36727    2459.6533    634.61574   -205.89272    222.77408   -689.22088    74.439732   -458.48234    289.75201 
  349000       349000    291.34674    107159.33    -177.9975   0.81895482   -787.89857    2467.9178    400.52619   -258.21561   -676.30309   -147.94273    -384.6945   -38.698063    290.09328 
  350000       350000    288.04961    107159.33     728.5621   0.81895482   -829.78205    2389.1888    1078.7833     810.0285    296.87446     349.8385   -642.24249    367.88186    286.64819 
  351000       351000    297.89626    107159.33    404.33443   0.81895482   -830.10431    2498.9033    753.42836    493.74468   -34.169729    132.85579    9.8708664    103.47671     296.5907 
  352000       352000    292.30915    107159.33   -2.3841075   0.81895482   -870.98542     2395.586    204.47748   -359.57975    147.94995   -868.80398   -39.061931   -1059.6906    290.97074 
  353000       353000    293.15172    107159.33    645.20369   0.81895482   -787.29512     2488.692   -252.19535    810.36269    1377.4437   -218.09884   -490.63015    77.429128    291.81576 
  354000       354000    288.19394    107159.33    12.582616   0.81895482   -838.79252    2381.7911     -99.1262    55.106644    81.767403    -474.8844   -679.41393   -33.632699    286.69721 
  355000       355000    296.20008    107159.33   -341.86985   0.81895482   -820.01959    2490.0332   -126.11149   -482.91046   -416.58762   -296.04376    424.44792     584.1975    294.77998 
  356000       356000    298.11634    107159.33   -252.31126   0.81895482   -919.63916    2411.8279   -663.76043    981.01182   -1074.1852   -654.88523   -30.101745   -171.58706     296.6456 
  357000       357000    293.65336    107159.33    657.48314   0.81895482   -917.96709    2363.6259    748.87254    366.95059    856.62628    6.9135611   -237.65822   -281.85224    292.18706 
  358000       358000    293.10149    107159.33     591.3342   0.81895482   -790.15439    2485.2715    1666.4094    104.13649    3.4567491    37.781407    337.31113     104.4981    291.64055 
  359000       359000     289.5792    107159.33   -443.64404   0.81895482   -976.52032    2259.5437   -1193.4637    228.75873   -366.22719     138.0478     25.49988    38.496981    288.34476 
  360000       360000    292.42195    107159.33    341.57729   0.81895482   -895.87268    2371.9592    276.47201    285.55293    462.70693   -1.5105118   0.46480091   -251.72871    291.05962 
  361000       361000     298.9643    107159.33   -896.75164   0.81895482   -798.58233    2542.3607   -1412.6491   -680.43588   -597.16997   -758.98004    230.06626   -538.07844    297.77787 
  362000       362000    296.51261    107159.33   -187.07907   0.81895482   -960.57522    2352.9701   -1361.8365   -147.81602     948.4153    162.60001    308.62188    172.54504    295.06939 
  363000       363000     295.9946    107159.33    1305.1741   0.81895482   -830.79599    2476.9605    2883.9182    133.42576    898.17845    416.24948    116.38457    471.70138    294.65085 
  364000       364000    289.00119    107159.33    122.76212   0.81895482   -862.24847    2367.3563    194.00675    555.80109   -381.52149    182.60224   -59.575717    374.27953    287.52303 
  365000       365000    296.42976    107159.33   -435.37095   0.81895482   -830.86991    2481.7496   -1185.6879   -36.851475   -83.573457   -124.81147   -73.204073     31.79123    295.06285 
  366000       366000    299.52703    107159.33    801.41139   0.81895482   -852.59419    2494.6374    1234.8266     283.3257    886.08188   -705.80111    165.26927   -238.62518    298.12043 
  367000       367000    288.69759    107159.33       397.99   0.81895482   -898.93832    2327.2736    193.47339    747.84897    252.64765   -222.37637   -208.55885   -376.57339    287.23225 
  368000       368000    300.50768    107159.33   -439.60598   0.81895482   -872.74285    2485.4476   -508.95659   -620.21141   -189.64994   -29.417649   -396.27878   -320.47762    299.20703 
  369000       369000    294.15252    107159.33   -365.13524   0.81895482   -773.81593    2513.3552   -641.78622   -240.85413   -212.76535    83.205388   -27.887326    516.32703    292.86437 
  370000       370000    292.31555    107159.33   -704.69263   0.81895482   -887.08795    2379.5549   -1038.1945   -882.98979   -192.89358   -583.42709    -299.6806    -313.5657    290.97152 
  371000       371000    292.47323    107159.33    -345.8524   0.81895482   -776.91848    2491.4865   -493.21178     -365.717   -178.62841   -75.149889   -139.83041   -881.05367    290.90688 
  372000       372000    287.25724    107159.33    175.43895   0.81895482   -851.10965    2359.0063   -645.24156    248.76726    922.79115   -825.92076    272.93749   -144.59787    285.83993 
  373000       373000    300.50847    107159.33    12.915276   0.81895482   -768.91371    2589.2855     187.2584    53.317048   -201.82962   -654.83528    193.48196    189.62391    299.11386 
  374000       374000     287.9966    107159.33    178.22318   0.81895482   -764.51782    2453.8606    346.07982    424.85413   -236.26442   -506.07313    448.80992   -777.76494    286.71731 
  375000       375000    297.28419    107159.33    810.71619   0.81895482   -758.01851    2564.1492     911.6837    593.48666    926.97821   -574.55631   -292.93787    196.17813    295.87749 
  376000       376000    290.17065    107159.33    280.17806   0.81895482   -902.90475    2339.7688    199.64381    272.45128    368.43909   -615.90435    813.54656    284.53043    288.81513 
  377000       377000    294.67601    107159.33   -200.36861   0.81895482   -847.67844    2445.3427   -275.84161   -563.44991    238.18569   -254.49793    53.970226   -106.19428    293.30753 
  378000       378000    293.72273    107159.33   -342.86301   0.81895482   -837.47559    2444.8927   -1633.5842    466.77531    138.21983   -154.28844     485.0176   -90.760121    292.55558 
  379000       379000    291.54991    107159.33    902.37277   0.81895482   -826.55765    2431.5292    1235.5381    701.60714    769.97302   -233.09167    190.77194    412.67348    290.16175 
  380000       380000    296.56021    107159.33    464.19982   0.81895482   -777.23045    2536.8467    1419.9639    272.61602   -299.98045   -145.91585    304.79041     451.0875     294.9913 
  381000       381000    293.55702    107159.33    684.62932   0.81895482   -909.53964    2370.9768    168.08054    1250.9343    634.87309   -52.607566   -66.817156    30.712197    292.18995 
  382000       382000    292.22723    107159.33    1241.2774   0.81895482    -772.7762    2492.8797    964.22292    1097.1837    1662.4255    122.27037    725.65549    441.67672    290.77316 
  383000       383000    291.69816    107159.33    748.34479   0.81895482   -826.02034    2433.7232    1403.9253     670.7429    170.36613    187.65934   -67.590288   -419.67072    290.26636 
  384000       384000    291.39545    107159.33    471.08525   0.81895482   -823.14201    2433.2187    484.17225   -36.369671    965.45318   -898.97556    219.21765   -79.933376    290.04107 
  385000       385000      290.529    107159.33   -744.20736   0.81895482   -815.29994    2431.3781   -1137.9293    -450.9006   -643.79216   -367.32873    476.06053   -1.2494181     289.1638 
  386000       386000    299.27269    107159.33   -265.80861   0.81895482   -818.83366    2525.5556   -511.63753   -271.36252    -14.42579   -694.70119    57.410026    485.04136    297.73071 
  387000       387000    291.10476    107159.33   -79.408368   0.81895482   -922.17927     2330.933    65.252365    345.44818   -648.92564    92.292978    97.893444   -261.99964    289.56225 
  388000       388000    293.48275    107159.33   -92.990183   0.81895482   -786.48813    2493.1983    178.84781   -466.09343    8.2750642   -219.49497    123.73358    405.96644    291.78888 
  389000       389000    293.10637    107159.33    530.92765   0.81895482   -771.04553    2504.4348    1182.2996     71.24875    339.23459   -98.808042    409.63292   -248.39342    291.60398 
  390000       390000     293.1549    107159.33   -642.32286   0.81895482   -806.56835    2469.4543   -672.40886   -930.53909   -324.02062   -689.42708    198.58177    52.360855    291.59562 
  391000       391000    286.97403    107159.33   -155.17881   0.81895482   -790.77901    2416.1721   -791.68481    517.18195   -191.03358    309.17816   -296.66807   -105.43694    285.58163 
  392000       392000    291.07874    107159.33    40.797611   0.81895482   -833.65908    2419.1625    762.92014    106.97374   -747.50104   -163.06158   -178.54363   -692.74891    289.70542 
  393000       393000    297.19047    107159.33    137.06346   0.81895482   -808.02859    2513.0918   -151.67397   -166.68081    729.54516   -462.81371    696.25223    170.40814     295.6203 
  394000       394000    289.86943    107159.33   -154.94737   0.81895482   -836.50256    2402.8048   -914.12943    398.20598    51.081337    71.021631   0.14401784    406.59214    288.42785 
  395000       395000    289.07344    107159.33    184.91119   0.81895482   -791.32629    2439.0859   -270.02935    311.88832     512.8746   -863.53538    35.161918    544.86643    287.71536 
  396000       396000    299.22807    107159.33    553.73124   0.81895482   -849.51624    2494.3745    784.98532    911.17864   -34.970232   -476.85797   -34.502176   -736.67516    297.85971 
  397000       397000    294.17063    107159.33   -189.24375   0.81895482    -843.0275     2444.346    -488.9678   -107.43561    28.672153   -899.15995    109.11333   -334.08142    292.74935 
  398000       398000    291.54915    107159.33   -229.34224   0.81895482   -811.89565    2446.1826   -814.08984   -546.82741    672.89054   -776.76272    140.95955    197.91419    290.04352 
  399000       399000    291.76607    107159.33   -204.16156   0.81895482   -803.87828    2456.6241   -636.11534   -304.52037    328.15103   -460.12337   -596.16632    107.10951    290.17104 
  400000       400000    294.04489    107159.33   -116.67254   0.81895482   -816.73374    2469.2346   -55.321263    72.442629   -367.13899   -512.71629    526.57535   -509.75633    292.63361 
  401000       401000    285.48815    107159.33    353.36022   0.81895482   -864.91304    2325.4332    440.97803    1179.2166     -560.114   -205.22541   -468.96194    178.44203    284.20466 
  402000       402000     299.7964    107159.33   -234.59667   0.81895482   -758.06098    2592.1809   -29.407192   -183.26243   -491.12038   -64.388656   -87.069464   -242.56185    298.28307 
  403000       403000    292.16071    107159.33   -52.648823   0.81895482   -835.68671    2429.2258   -439.29387    804.27597   -522.92857   -344.21009    126.58149   -783.80921    290.61777 
  404000       404000    292.26778    107159.33   -33.918394   0.81895482   -732.96309     2533.146    -207.6671    777.70695   -671.79503   -1039.5018    195.62808   -78.813505    290.78263 
  405000       405000    290.46778    107159.33    497.19185   0.81895482   -815.34613    2430.6478   -110.27687    1716.5781   -114.72566     259.4002   -637.27097    531.70737    288.94229 
  406000       406000     293.0839    107159.33   -344.00841   0.81895482   -818.21643    2457.0128   -587.99597   -280.92411   -163.10516    -225.5232    420.90257   -14.466234    291.80102 
[...]
 2904000      2904000     289.4802    107159.33    58.442628   0.81895482   -802.02799    2432.9298   -10.059555   -128.99387    314.38131   -404.80276   -763.00439   -221.17405    288.37637 
 2905000      2905000    293.99357    107159.33    436.38752   0.81895482   -766.45086     2518.944   -88.135427    437.33298      959.965   -168.11354     305.3661   -42.921307    293.09476 
 2906000      2906000    295.84604    107159.33    157.43702   0.81895482   -805.30201    2500.7944   -354.03515    376.78488    449.56132     -14.9253    675.94641    718.93624    295.01899 
 2907000      2907000    286.48005    107159.33     246.3785   0.81895482   -876.93242    2324.4985   -37.552563    209.89437     566.7937   -13.882642    454.86896   -449.39501    285.73403 
 2908000      2908000    296.22112    107159.33    1358.1144   0.81895482   -725.71687     2584.571    1841.6036    1131.3724    1101.3673   -706.85634    365.32227   -412.75749    295.50549 
 2909000      2909000    291.06664    107159.33    178.73866   0.81895482   -776.53266    2476.1536    1507.6714   -617.96626   -353.48913   -886.78527    247.63186   -764.70427    290.20798 
 2910000      2910000    286.44589    107159.33    306.97274   0.81895482   -759.86934    2441.1797    696.40557   -97.456222    321.96888    247.48214   -367.87873    169.12005    285.53758 
 2911000      2911000    293.57392    107159.33    829.83133   0.81895482   -749.28118     2531.424     1306.272    362.24814    820.97387   -94.621166    804.99733   -73.790516      292.683 
 2912000      2912000    292.18076    107159.33    1179.5132   0.81895482   -824.89469    2440.2419    1676.9697    1004.1731    857.39678   -113.01107   -492.80577   -230.37647    291.31883 
 2913000      2913000     294.3647    107159.33    12.954308   0.81895482   -802.28782    2487.2544    152.05564    -188.6076     75.41488   -280.86984    405.31329   -377.77035    293.61038 
 2914000      2914000    296.98267    107159.33   -404.02891   0.81895482   -780.86676    2537.9315    -715.0309   -489.23293   -7.8229098   -80.927358     507.3566    196.76054    296.23829 
 2915000      2915000    290.96464    107159.33    317.56444   0.81895482   -817.85972    2433.6867   -89.517711    351.58876    690.62229    417.92256    675.06096   -172.47342     290.3962 
 2916000      2916000    298.84744    107159.33    595.79525   0.81895482   -803.45019    2536.1869    518.84984    467.89357    800.64234   -317.19592      98.1434    -33.14814    298.02965 
 2917000      2917000    294.03288    107159.33    310.16117   0.81895482   -841.07139    2444.7628   -222.53369   -65.820098    1218.8373   -563.45795    52.802455    477.37424     293.2658 
 2918000      2918000     300.9304    107159.33    134.50423   0.81895482   -849.99089    2512.9235   -272.20169    674.21852    1.4958662    -908.8049   -540.30565   -175.23539    300.22019 
 2919000      2919000    291.85796    107159.33    169.95426   0.81895482   -805.76367    2455.7656    -45.84326    629.00177   -73.295725   -1088.9431   -246.53239    419.79162    290.93856 
 2920000      2920000     292.7618    107159.33    515.84502   0.81895482   -805.66898    2465.9608   -106.22016    654.10048    999.65475   -556.35607    -548.0332   -226.79283    291.98954 
 2921000      2921000    295.02155    107159.33   -24.148258   0.81895482   -773.27106    2523.6115   -530.90483     377.6478    80.812259   -930.18586    170.90268   -98.716652    294.19118 
 2922000      2922000    292.75254    107159.33    193.30689   0.81895482   -835.18979    2436.3365    191.61502    287.69363    100.61201   -152.31001 -0.024465231    112.90154    292.01174 
 2923000      2923000    284.54618    107159.33   -560.39688   0.81895482   -755.91574     2423.904   -741.20043   -425.48767   -514.50255   -60.388836    181.04835   -533.99621    283.85361 
 2924000      2924000    287.71535    107159.33    656.70973   0.81895482   -873.30996    2341.9254    811.72532    620.71786    537.68601   -513.80274   -60.015466   -532.08976    287.08199 
 2925000      2925000    292.68866    107159.33    805.79142   0.81895482   -833.85875    2436.9537    786.05784    846.24382    785.07261   -359.77081    425.07015   -6.1577373     291.8151 
 2926000      2926000    297.47315    107159.33   -149.75963   0.81895482   -748.76091    2575.5185   -825.19163    725.49769   -349.58496   -15.465343    441.64241    603.99736    296.43728 
 2927000      2927000    295.75197    107159.33    547.02877   0.81895482   -825.14186    2479.9032    116.26582     720.6767    804.14379   -119.40906   -474.99836    250.20743    294.94893 
 2928000      2928000    297.49598    107159.33    483.56533   0.81895482   -856.21703    2468.3174   -57.715788    1193.0691     315.3427   -718.17849   -366.85572    411.61664    296.72758 
 2929000      2929000    286.82509    107159.33    87.664515   0.81895482   -775.72178    2429.5649   -350.94623   -57.423664    671.36344   -651.04426   -79.045875   -202.78062    286.16416 
 2930000      2930000    298.95461    107159.33    90.260516   0.81895482   -810.25247    2530.5823     66.81607   -142.35741    346.32289   -338.66115     362.9525    -628.7884    298.16615 
 2931000      2931000    295.44584    107159.33    603.87629   0.81895482   -804.39028    2497.2338     697.6996    831.90272    282.02655   -224.42599   -205.72723    837.16926      294.678 
 2932000      2932000    292.74452    107159.33    370.45854   0.81895482   -867.38657    2404.0501    358.44751   -398.43361    1151.3617   -404.98278   -172.38613    780.43756    292.04002 
 2933000      2933000    292.17357    107159.33    715.22377   0.81895482    -727.8308    2537.2254    253.94176     258.1158    1633.6138   -342.76723   -45.151215   -178.73995    291.56732 
 2934000      2934000    294.37621    107159.33    -410.5543   0.81895482   -792.85736    2496.8135   -746.18971   -231.30955   -254.16365    114.76035    364.53073    859.44804    293.35661 
 2935000      2935000    295.52432    107159.33    418.35089   0.81895482    -817.1781     2485.323    516.35744     244.2004    494.49484   -1246.5143     351.2148    165.93168    294.75953 
 2936000      2936000    294.01152    107159.33   -9.3341497   0.81895482   -787.04695    2498.5485   -211.52573    351.90209   -168.37881    -279.4988   -104.66787   -189.35933    293.21492 
 2937000      2937000    285.83972    107159.33   -825.55586   0.81895482   -776.14567    2418.1295    -2773.301    92.982412    203.65096   -72.556889   -974.39991     178.6145    284.96328 
 2938000      2938000    292.91947    107159.33   -322.05394   0.81895482   -752.91209    2520.4797   -609.15223    381.16078   -738.17037   -968.30743   -12.497525     131.5024    292.10194 
 2939000      2939000    293.96017    107159.33    493.60174   0.81895482   -827.08331    2457.9383     497.8763    796.29498    186.63394    323.37244   -422.95373    246.43165    293.25265 
 2940000      2940000    286.94874    107159.33   -953.54184   0.81895482    -745.6603    2461.0082   -2130.5676   -299.76329   -430.29461   -1037.0478   -768.32035   -85.098196    286.13576 
 2941000      2941000    298.04755    107159.33    292.77165   0.81895482   -752.66716    2578.0311    147.97093    761.83749    -31.49348   -56.263341    145.15224    97.238398    297.13844 
 2942000      2942000    293.24936    107159.33    486.22931   0.81895482   -837.96613    2439.1121     594.8662    526.33536    337.48637   -470.07323    525.32761    10.563524    292.43346 
 2943000      2943000    292.70239    107159.33    718.17802   0.81895482   -864.35603    2406.6098    273.57343    980.02642     900.9342   -319.52405    271.66685   -59.418289    291.99891 
 2944000      2944000     296.1301    107159.33    587.30072   0.81895482   -719.78987    2589.4808    353.22921    1022.8668     385.8061    296.06786    591.23555   -195.92436    295.21598 
 2945000      2945000    286.47496    107159.33   -55.068277   0.81895482   -757.71513    2443.6588   -329.30367   -159.75708    323.85592    -453.5175     274.1725    199.12739    285.68344 
 2946000      2946000    296.18156    107159.33    633.96905   0.81895482   -768.97021    2540.8755    416.17234    1074.8593    410.87554   -662.88591    1005.5404    286.63958    295.28825 
 2947000      2947000    287.13816    107159.33    197.97954   0.81895482   -771.79511    2436.9901    47.378534    333.17109    213.38901   -117.67849   -35.005562   -538.95746    286.36491 
 2948000      2948000    291.17693    107159.33      819.399   0.81895482   -727.40218    2526.5166     1214.826    674.80029    568.57074    287.41827    96.987099    331.05547    290.42688 
 2949000      2949000    295.16165    107159.33    502.29354   0.81895482   -745.75627     2552.692   -323.92489    886.43854    944.36697   -604.16313   -233.79798    348.53634    294.38649 
 2950000      2950000    294.40518    107159.33    1357.4078   0.81895482   -836.90288    2453.0917    1687.6629    471.36512    1913.1955   -471.49221    478.15076    381.54036    293.61734 
 2951000      2951000    288.59817    107159.33    236.94419   0.81895482   -783.07828    2442.0227   -60.418465    171.82211    599.42894   -246.31772     489.5516    319.18869    287.89065 
 2952000      2952000    291.23618    107159.33    216.86406   0.81895482   -762.80476    2491.7762   -189.05245    472.89001    366.75462   -49.079867   -138.17981   -340.98145     290.3582 
 2953000      2953000     290.4337    107159.33    364.35474   0.81895482    -782.1014    2463.5117    141.45298   -184.40778     1136.019   -802.30529     313.0329    150.13322    289.74449 
 2954000      2954000    289.86917    107159.33   -24.154785   0.81895482   -773.44106    2465.8634   -37.234816    95.130296   -130.35983   -42.418777    731.74488   -492.82655    289.34622 
 2955000      2955000    294.60092    107159.33    49.774246   0.81895482   -803.14964    2489.0324   -500.78073    912.60673   -262.50326   -349.70137    212.40459   -21.450477    293.82111 
 2956000      2956000    294.34599    107159.33    897.23242   0.81895482   -788.29696    2501.0363     813.0385    593.18983    1285.4689   -110.64724    -295.7293    517.08918     293.4845 
 2957000      2957000    294.69235    107159.33    718.55511   0.81895482    -820.1603    2473.0434   -558.19811    1111.2712    1602.5922   -71.899462    378.94585   -725.81927    293.75203 
 2958000      2958000    292.81948    107159.33    196.05946   0.81895482   -730.41941    2541.8549   -660.08871    711.42485    536.84226   -590.20036   -734.44737    152.72543    291.96564 
 2959000      2959000    301.03804    107159.33   -523.44406   0.81895482   -830.82293    2533.2943   -776.16179   -505.06095   -289.10944   -392.58011   -26.389647    357.46482    300.39981 
 2960000      2960000    289.72613    107159.33   -446.03364   0.81895482   -720.88931    2516.8167    -1042.524    427.39663   -722.97353   -136.61546   -267.33479   -82.292011    289.11799 
 2961000      2961000    289.45621    107159.33    589.22333   0.81895482   -777.13788    2457.5517    442.94866    1202.0892    122.63218    -905.7342   -319.23559   -600.93428    288.53181 
 2962000      2962000    293.79151    107159.33    204.49554   0.81895482   -811.07922    2472.0576    527.31039    205.28795   -119.11171   -438.78655   -88.478817   -435.72314    292.93267 
 2963000      2963000    296.17186    107159.33    274.04753   0.81895482   -774.26538     2535.472    294.62213    546.05826   -18.537814   -372.49753   -24.259351   -364.08446    295.24067 
 2964000      2964000    288.58258    107159.33    762.88555   0.81895482   -889.98112    2334.9456    442.74935    1058.5623    787.34495   -377.71351    449.15872   -185.33059    287.64489 
 2965000      2965000    294.63776    107159.33      89.3461   0.81895482    -738.8019    2553.7918   -162.72739    70.280284    360.48541   -379.81272   -328.19304   -60.896344    293.79931 
 2966000      2966000    287.33707    107159.33    1123.3241   0.81895482   -853.35552    2357.6526    2148.1646    955.86324     265.9444   -537.81781   -84.041533    527.50701    286.50846 
 2967000      2967000    294.62095    107159.33    279.11759   0.81895482   -820.41463    2471.9913   -162.25106    468.35638    531.24744    393.68985   -524.50996    108.41908    293.91371 
 2968000      2968000    291.89308    107159.33    395.59807   0.81895482   -839.02616    2422.8956    126.90228    470.82266    589.06926   -209.20329   -103.63536    198.25669    290.97062 
 2969000      2969000    288.14938    107159.33    525.83106   0.81895482   -781.16281    2438.9229   -408.06027    1227.4791    758.07431   -347.19932    101.74458    105.27874    287.30903 
 2970000      2970000    294.65716    107159.33    333.30913   0.81895482   -765.80109    2527.0095   -23.671096   -84.529918    1108.1284   -137.01005    567.92713    449.31988     293.8804 
 2971000      2971000    292.43623    107159.33   -518.69398   0.81895482   -785.12811    2482.8634    132.42671   -1102.9549   -585.55371   -656.25636   -103.41034    129.75003    291.86336 
 2972000      2972000    291.34392    107159.33    1212.0752   0.81895482   -702.13636    2553.6485    471.74931    1820.7581    1343.7183    108.64017   -214.28489    221.70788    290.80086 
 2973000      2973000    291.83903    107159.33    417.35417   0.81895482   -811.33917    2449.9785    205.38568    473.46292    573.21391   -448.48324    286.40308   -62.172805    291.10335 
 2974000      2974000    287.11068    107159.33    445.99831   0.81895482   -764.21621     2444.262   -271.65836    941.92984    667.72344   -397.46381    118.00553    59.476362    286.29449 
 2975000      2975000    289.18966    107159.33    474.72531   0.81895482   -749.99229    2481.7186   -73.230203    757.40048    740.00565    323.53099    499.80091    240.41846     288.2097 
 2976000      2976000    297.45488    107159.33    883.26359   0.81895482   -801.29426    2522.7809    1230.5537    669.83222    749.40487    9.8061688   -555.30574    366.60248    296.53124 
 2977000      2977000    285.57821    107159.33   -254.26646   0.81895482   -931.69029    2259.6625   -298.65893   -294.83549   -169.30498   -335.72389    109.94849    271.45105    284.65848 
 2978000      2978000    294.91076    107159.33    786.51724   0.81895482   -758.70146    2536.9431    513.03418    777.80405    1068.7135     195.6249    20.857581     123.2376    294.27969 
 2979000      2979000    292.62845    107159.33    129.80828   0.81895482   -849.93259    2420.2069   -304.63738    410.61805    283.44418    525.02815    413.00732    254.64303     291.8879 
 2980000      2980000    289.17788    107159.33    1.9531068   0.81895482   -841.09217     2390.487    211.68696   -403.01048    197.18284   -535.39561    85.790519    467.48932    288.49004 
 2981000      2981000    300.69379    107159.33    589.24514   0.81895482    -819.2017    2541.0685     -184.505    731.00656    1221.2339   -647.06695   -515.75015    472.39095    299.91296 
 2982000      2982000    293.63661    107159.33    655.75071   0.81895482   -890.80529    2390.6006    2352.0368   -478.29245    93.507756   -275.20277    486.28473    127.96182    292.90044 
 2983000      2983000    288.13305    107159.33    656.85566   0.81895482   -873.31333    2346.5899    957.58221    321.78491    691.19984    100.24769    107.38759    681.91615    287.41686 
 2984000      2984000     292.7816    107159.33   -271.24508   0.81895482   -769.50581    2502.3452   -618.64682   -550.94586    355.85743   -567.92222   -102.47117    346.19748    291.97885 
 2985000      2985000     292.6391    107159.33    76.559569   0.81895482   -896.87685    2373.3817   -364.55684    546.19924    48.036307   -484.10527   -189.59454    9.5700281       291.75 
 2986000      2986000    299.07803    107159.33    194.26539   0.81895482   -748.96402      2593.25   -329.37502   -43.433264    955.60446   -293.85614    487.50634    281.71946    298.18454 
 2987000      2987000    292.70048    107159.33   -356.91877   0.81895482   -840.69282    2430.2516   -982.27666   -189.28907    100.80941   -522.89574   -575.62077   -94.610112    291.81354 
 2988000      2988000    287.21126    107159.33   -151.21321   0.81895482   -767.12125    2442.4809   -612.24761   -247.16679    405.77477   -318.01101     304.1851   -306.80518    286.36608 
 2989000      2989000    291.31795    107159.33    1827.4081   0.81895482   -846.94104    2408.5537    1945.2174    1726.7641    1810.2427   -696.70563   -534.31492    21.573742    290.65635 
 2990000      2990000    291.57943    107159.33   -156.37132   0.81895482   -814.96693    2443.4498    111.34788   -233.29463   -347.16722   -362.11265    605.18825    31.589987    290.83043 
 2991000      2991000    293.31469    107159.33     434.9328   0.81895482   -819.79758    2458.0107     783.0691   -177.07308    698.80239    -920.3663   -460.44528    443.40614    292.46009 
 2992000      2992000     296.1241    107159.33    1077.6277   0.81895482   -818.63072    2490.5729    1109.8544    1110.6083    1012.4204   -146.54677    122.71871   -476.91361     295.3894 
 2993000      2993000    288.24586    107159.33    334.58966   0.81895482   -780.56829    2440.5956    134.85772    591.38081    277.53046   -176.87519   -183.46915    197.42823    287.43108 
 2994000      2994000    294.27974    107159.33    231.03205   0.81895482   -790.57504    2498.0178    397.39766    442.63018    -146.9317   -635.92241   -211.72567   -29.033252    293.40729 
 2995000      2995000    289.02727    107159.33    1060.9436   0.81895482   -794.31617      2435.58    1230.6941      540.437    1411.6996   -609.39052    119.96225    -471.5322    288.36978 
 2996000      2996000    296.31019    107159.33    492.70723   0.81895482   -823.47465    2487.8086   -119.91514    993.44947    604.58735   -870.81368   -264.84029   -236.94924    295.58044 
 2997000      2997000    298.56604    107159.33      188.895   0.81895482   -864.67927    2471.8132    341.29403   -629.41669    854.80767   -255.48079   -98.994892    244.85777    297.78069 
 2998000      2998000    288.84495    107159.33   -360.67204   0.81895482   -738.75945    2489.0993   -284.19303    -347.0566   -450.76647     -505.972   -253.75714    365.90774    287.86137 
 2999000      2999000    297.26236    107159.33    445.36264   0.81895482   -873.61522    2448.3086    595.88261    850.55252   -110.34722   -465.96411   -674.50314    96.896128    296.58114 
 3000000      3000000      295.213    107159.33   -236.42475   0.81895482   -764.19099    2534.8311   -380.88414   -181.48082   -146.90929    -195.3571    317.98497   -318.60809    294.49622 
Loop time of 189.415 on 192 procs for 600000 steps with 3750 atoms

Performance: 273.685 ns/day, 0.088 hours/ns, 3167.654 timesteps/s
99.7% CPU use with 192 MPI tasks x 1 OpenMP threads

MPI task timing breakdown:
Section |  min time  |  avg time  |  max time  |%varavg| %total
---------------------------------------------------------------
Pair    | 20.435     | 22.886     | 25.749     |  24.0 | 12.08
Bond    | 4.1933     | 4.4965     | 4.979      |   7.0 |  2.37
Neigh   | 14.839     | 15.415     | 15.748     |   6.4 |  8.14
Comm    | 77.218     | 80.995     | 84.106     |  14.4 | 42.76
Output  | 39.169     | 39.36      | 39.362     |   0.2 | 20.78
Modify  | 17.084     | 18.531     | 20.645     |  19.3 |  9.78
Other   |            | 7.731      |            |       |  4.08

Nlocal:    19.5312 ave 27 max 11 min
Histogram: 2 6 10 34 18 48 46 9 14 5
Nghost:    836.443 ave 864 max 798 min
Histogram: 2 7 7 16 28 40 37 29 19 7
Neighs:    1492.16 ave 2121 max 824 min
Histogram: 2 4 19 34 25 48 29 16 11 4

Total # of neighbors = 286494
Ave neighs/atom = 76.3984
Ave special neighs/atom = 6.26667
Neighbor list builds = 68678
Dangerous builds = 0
System init for write_restart ...
Total wall time: 0:16:00
