LAMMPS (10 Feb 2015)
Read molecule SQL:
  30 atoms with 4 types
  29 bonds with 1 types
  34 angles with 1 types
  31 dihedrals with 2 types
  6 impropers with 1 types
Reading restart file ...
  restart file = 10 Feb 2015, LAMMPS = 10 Feb 2015
  triclinic box = (112.628 112.628 112.628) to (157.372 157.372 157.372) with tilt (-1.81899e-12 0 0)
  4 by 3 by 4 MPI processor grid
  3750 atoms
  3625 bonds
  4250 angles
  3875 dihedrals
  750 impropers
250 atoms in group endatoms
60 atoms in group samplechains
Resetting global state of Fix shear1 Style nvt/sllod from restart file info
Neighbor list info ...
  1 neighbor list requests
  update every 1 steps, delay 0 steps, check yes
  master list distance cutoff = 10.3
Setting up run ...
Memory usage per processor = 5.71195 Mbytes
Step dummytim Temp Volume Press Density PotEng TotEng Pxx Pyy Pzz Pxy Pyz Pxz myT 
410000000      4.1e+08    287.55247    89584.282    7087.3819     0.979621    -882.4994    2330.9158    6920.3615    7712.6016    6629.1827    -796.4567   -388.39002    36.855398    287.55414 
410010000   4.1001e+08    291.45421    89584.282    6455.0845     0.979621   -982.53017    2274.4872    5726.4393    6516.0928    7122.7214   -1084.4736   -279.99624   -507.05618    291.45199 
410020000   4.1002e+08    295.58463    89584.282    6813.3566     0.979621   -963.53166    2339.6434    7340.2915    6914.3497    6185.4285   -1198.2937   -731.45978   -216.78388    295.58386 
410030000   4.1003e+08    292.61312    89584.282    6666.4954     0.979621   -1010.7402     2259.228    6113.3834    6887.7778     6998.325   -818.40808   -12.968807   -482.25782    292.61369 
410040000   4.1004e+08    290.64991    89584.282    7084.5634     0.979621   -905.92279    2342.1065     6835.873     7750.378    6667.4393   -1010.4071    707.36129   -94.415305    290.65053 
410050000   4.1005e+08    294.77573    89584.282    6879.2473     0.979621   -891.42175    2402.7138    6508.7614    7755.3057    6373.6746    -739.6763      575.336    287.71678    294.77355 
410060000   4.1006e+08    298.29341    89584.282    6632.4523     0.979621   -990.84589    2342.5999    6190.8379    6255.3082    7451.2109   -1258.7441   -106.37267   -709.29139    298.29273 
410070000   4.1007e+08    293.55486    89584.282    7642.5177     0.979621   -935.77887    2344.7134    7274.1812    8042.8174    7610.5545    -654.0947   -1081.4149   -162.01693    293.55698 
410080000   4.1008e+08    289.93089    89584.282    7669.7911     0.979621   -867.07444    2372.9197     6714.096    7476.3455    8818.9318   -651.28802   -260.18109   -954.52588    289.93211 
410090000   4.1009e+08    286.09521    89584.282    6364.3763     0.979621    -925.3257    2271.8045    6680.0763    6154.6874    6258.3653   -1819.0151    394.27695    259.86128     286.0931 
410100000    4.101e+08      295.897    89584.282    7068.8844     0.979621   -868.84196    2437.8238    6046.9878    8035.1529    7124.5126   -375.38506    465.28913   -185.58987    295.89719 
410110000   4.1011e+08    294.14452    89584.282    7078.7046     0.979621   -891.61687    2395.4648    6695.4282    6663.1852    7877.5005   -911.81678   -44.476733   -1507.8318    294.14279 
410120000   4.1012e+08    295.61604    89584.282    6827.0366     0.979621   -996.68195    2306.8441    6627.7176    7356.9232    6496.4691    -1087.667   -12.407299   -582.81622    295.61751 
410130000   4.1013e+08    296.08128    89584.282    6689.1871     0.979621   -902.77557    2405.9495    6295.8741    7161.4287    6610.2586    218.62135   -127.25815   -218.75613    296.07864 
410140000   4.1014e+08    292.43686    89584.282    7797.9316     0.979621   -952.91158    2315.0869    7962.8025     6755.185    8675.8073   -912.23738   -915.32857   -300.85987    292.43335 
410150000   4.1015e+08    294.89282    89584.282    7486.1456     0.979621   -950.55232    2344.8917    6786.0732    6914.9375    8757.4262   -931.41693   -488.48042   -137.09157     294.8963 
410160000   4.1016e+08    289.32827    89584.282    6885.9973     0.979621   -933.28191     2299.978    6942.1013    7022.7088    6693.1818   -1631.5734    204.57533     506.0747     289.3302 
410170000   4.1017e+08    295.64035    89584.282    6520.4418     0.979621    -1028.969    2274.8287    5196.1486    6877.3631    7487.8136   -734.44597   -133.28051   -1132.8051    295.63616 
410180000   4.1018e+08    290.91846    89584.282     6091.358     0.979621   -940.14369    2310.8866    5358.6601     6197.152    6718.2619   -1174.6932   -253.57894   -175.76446    290.91855 
410190000   4.1019e+08     286.9928    89584.282    7715.4518     0.979621     -934.259    2272.9019    6505.3005    8088.2784    8552.7766   -928.93905    130.58863    464.63669    286.99285 
410200000    4.102e+08    290.98221    89584.282    6311.9888     0.979621     -976.408    2275.3347    4704.7738    7003.0221    7228.1705   -1138.1067   -423.15145   -490.77654    290.98338 
410210000   4.1021e+08    291.23823    89584.282    6036.4053     0.979621   -942.40326    2312.2006    4829.6273    6306.4795     6973.109   -1365.0245    751.72485     207.6294    291.23806 
410220000   4.1022e+08    287.90979    89584.282    7180.7051     0.979621   -1005.6924    2211.7159    7027.9768    7909.6221    6604.5163   -265.25173    891.86792   -517.60343    287.90816 
410230000   4.1023e+08    296.00377    89584.282     6296.585     0.979621   -961.45197     2346.407    5729.5405    6446.5064    6713.7082   -975.47159    325.68401    102.91808    296.00147 
410240000   4.1024e+08    289.83078    89584.282    7052.7964     0.979621    -974.8637    2264.0118    6847.9565    7448.1258    6862.3068   -426.76268   -305.65769   -175.90235    289.83047 
410250000   4.1025e+08    300.98344    89584.282    5902.4511     0.979621   -930.54226    2432.9648    5948.2286    6017.9977    5741.1271   -793.92174   -366.29663     606.7168    300.98265 
410260000   4.1026e+08    293.66985    89584.282    7722.5605     0.979621   -893.44952    2388.3277    7061.9851    7967.8833    8137.8131    167.74435   -283.46035   -567.21746      293.666 
410270000   4.1027e+08    286.32174    89584.282    7516.9967     0.979621   -929.64477     2270.017    6626.4292    8174.2196    7750.3413   -1418.0775    -27.11644    168.31144    286.32442 
410280000   4.1028e+08    297.03061    89584.282    7123.9104     0.979621    -957.4602    2361.8738    6496.3053    6880.9848    7994.4413   -540.27606    -425.5918   -339.42683    297.03185 
410290000   4.1029e+08    294.20611    89584.282    7405.1308     0.979621   -961.10895    2326.6611      7388.79      6326.27    8500.3323   -873.38258    721.94811   -135.77865    294.20915 
410300000    4.103e+08    291.09696    89584.282    6076.2921     0.979621   -941.23651    2311.7886    6118.1538    6144.9147    5965.8078   -1105.1247    359.07852    6.9062479    291.10052 
410310000   4.1031e+08    289.17679    89584.282    6616.0846     0.979621   -921.63393    2309.9332     6522.886    6754.3577    6571.0101   -879.86489     218.5311    765.68112    289.17835 
410320000   4.1032e+08    287.52706    89584.282    6931.5528     0.979621   -942.28412    2270.8471    6930.5616    6482.8615    7381.2353   -612.13187     319.5907   -516.69819    287.52881 
410330000   4.1033e+08    289.29264    89584.282    6857.0495     0.979621   -858.00551    2374.8562    6211.4045    7598.6855    6761.0585   -1467.6079   -54.174993   -231.70741    289.29304 
410340000   4.1034e+08    296.00423    89584.282    5997.9311     0.979621   -921.92176    2385.9424    4785.0114    6051.7267    7157.0552   -249.06012    249.69641    982.64523    296.00276 
410350000   4.1035e+08    304.06504    89584.282    6649.3269     0.979621   -915.11934    2482.8248    5743.0109    7820.6505    6384.3193   -1608.7155    361.04767   -635.35515    304.06636 
410360000   4.1036e+08    285.16365    89584.282    6615.6301     0.979621   -982.48711    2204.2329    5919.7219    6377.9596    7549.2087   -1984.3773   -5.3240853   -373.29851    285.16596 
410370000   4.1037e+08    295.40335    89584.282     7743.393     0.979621   -922.72466    2378.4245    6476.3621    8204.4674    8549.3494   -435.78399    624.29599   -670.61209    295.40449 
410380000   4.1038e+08    290.70503    89584.282    6301.6365     0.979621   -1024.7554    2223.8899    5061.9021    7182.4401    6660.5674   -938.44341   -999.54667   -596.64334    290.70498 
410390000   4.1039e+08     295.8487    89584.282    8136.0879     0.979621   -1002.4133    2303.7127    8336.2459    7589.2907    8482.7272     -1486.59    406.48366     797.4244    295.84784 
410400000    4.104e+08    299.13716    89584.282    7231.3982     0.979621   -907.61372     2435.261    7554.8344    6981.5438    7157.8162   -677.10336      260.926   -362.27441    299.13787 
410410000   4.1041e+08    299.41113    89584.282    6501.9663     0.979621   -1051.6821    2294.2543     5723.417    7259.8586    6522.6232   -706.52671    765.21681   -160.07853     299.4108 
410420000   4.1042e+08    289.41659    89584.282    7309.7155     0.979621   -1006.5257    2227.7212    7105.9727    7091.2036    7731.9702   -1597.5066    392.48621    897.81641    289.41747 
410430000   4.1043e+08    298.70758    89584.282    6932.1784     0.979621   -972.29834    2365.7759    6766.7457    7180.9115    6848.8781   -901.80211    157.53838   -22.820089    298.70854 
410440000   4.1044e+08    293.74016    89584.282    6738.3563     0.979621   -1013.7644    2268.7986    5990.5688    7180.7373    7043.7629   -1343.1318    361.03729       82.963       293.74 
410450000   4.1045e+08    295.25578    89584.282    7678.4872     0.979621   -1030.7438    2268.7563     7117.905     7714.702    8202.8545   -763.12504    604.28969    546.13771    295.25877 
410460000   4.1046e+08    296.50792    89584.282    7670.0779     0.979621   -1021.6846    2291.8083    7689.0281     7978.919    7342.2865   -491.54951   -141.40974    319.66863    296.50726 
410470000   4.1047e+08      294.603    89584.282    7396.4339     0.979621   -951.26685    2340.9385    7299.6012    7187.1331    7702.5674   -1059.4905   -76.480295    740.50596    294.60296 
410480000   4.1048e+08    295.42153    89584.282    6859.6956     0.979621   -1092.1841    2209.1683    6374.3347     6338.468     7866.284   -863.35394   -338.21725    36.438717    295.42557 
410490000   4.1049e+08    290.58741    89584.282    6375.8614     0.979621   -1012.9857    2234.3452    6200.8847     7061.199    5865.5006   -1185.0941   -233.62463    714.70492    290.58804 
410500000    4.105e+08    288.88192    89584.282    7181.6648     0.979621   -1080.8005    2147.4714    7077.4724    7482.1717    6985.3502   -1465.2402   -110.74904   -81.926499    288.88262 
410510000   4.1051e+08    294.85921    89584.282    7279.9968     0.979621   -983.70408    2311.3644    6725.5484     7750.743    7363.6989   -575.39115    384.69896   -19.705217    294.86077 
410520000   4.1052e+08    299.08804    89584.282    6154.3121     0.979621   -1069.2985    2273.0274    6490.9449    6262.1144    5709.8769   -1370.8274   -343.58001   -553.84854    299.08637 
410530000   4.1053e+08    294.61728    89584.282    7688.8538     0.979621   -1052.7679     2239.597    7223.2014    7442.0002    8401.3597   -746.92874   -131.89746   -607.96917     294.6164 
410540000   4.1054e+08     292.4825    89584.282     6738.601     0.979621   -1036.1531    2232.3554     6372.812    6838.3433    7004.6476   -893.52086    413.52851    1020.8497    292.48265 
410550000   4.1055e+08     296.8174    89584.282    6650.9841     0.979621    -1032.904    2284.0473    5184.3137    7698.6284    7070.0101    -1296.981   -200.49511   -1571.7638    296.81648 
410560000   4.1056e+08    292.22515    89584.282      6259.09     0.979621   -1070.4028    2195.2298    5206.6708    7349.7742     6220.825   -1189.7173    198.05007   -741.88745    292.22246 
410570000   4.1057e+08    299.65773    89584.282    6721.4964     0.979621   -1047.8458    2300.8464    5915.0092    7189.9972    7059.4829   -1561.8036    188.57505   -45.354745    299.65241 
410580000   4.1058e+08    296.53308    89584.282    6667.9678     0.979621   -1071.2052    2242.5688    5705.9869    8079.4573    6218.4592    -1249.084   -77.006257    -81.39362    296.53357 
410590000   4.1059e+08    298.04601    89584.282    6694.7604     0.979621   -1085.8762    2244.8049     5128.501    8017.6417    6938.1384   -366.86114    271.24922   -406.49604    298.04443 
410600000    4.106e+08    298.82886    89584.282    6428.1059     0.979621     -1020.03    2319.3996    6192.8583    6807.5779    6283.8815   -602.91502    -304.8529    45.749044    298.82973 
410610000   4.1061e+08    290.51643    89584.282    6744.7087     0.979621    -1007.202    2239.3356    5779.9353    6703.5815    7750.6094   -769.77242   -454.00207    258.64796    290.51845 
410620000   4.1062e+08    297.00058    89584.282     6713.449     0.979621   -1011.4787    2307.5196    5410.3081    7261.2515    7468.7873   -993.43365   -75.646576   -904.90115    297.00117 
410630000   4.1063e+08    291.43134    89584.282    6538.3812     0.979621   -1008.5311    2248.2307    5912.3065    6103.8409    7598.9961   -1393.0919   -190.06364   -431.83208    291.43356 
410640000   4.1064e+08     292.4542    89584.282    7516.9656     0.979621   -970.10192    2298.0904     7763.311    7766.9807    7020.6052   -1175.0887    257.78916    696.73954    292.45152 
410650000   4.1065e+08     290.1908    89584.282    7319.6312     0.979621    -998.8331    2244.0656    6176.4252    7526.5842    8255.8843   -1117.4526    -339.2971   -692.02123    290.19425 
410660000   4.1066e+08    290.39031    89584.282    6807.8657     0.979621    -986.1207    2259.0076    6627.4374    6829.3339    6966.8259   -2020.7443    19.642835   -488.77688    290.38801 
410670000   4.1067e+08    297.49502    89584.282    7172.9295     0.979621   -1100.9397    2223.5841    7014.0672    8005.6342     6499.087   -773.39931   -450.34698     32.59267    297.49454 
410680000   4.1068e+08    295.19959    89584.282    6448.4868     0.979621    -1029.604    2269.2682    5557.1071    6231.5041    7556.8491   -866.65426    917.16666    -580.2901    295.20408 
410690000   4.1069e+08    295.25625    89584.282    5877.5024     0.979621   -944.80181    2354.7036    5645.0079    6216.8299    5770.6692   -1528.4458   -124.49884    542.64067    295.25697 
410700000    4.107e+08    295.30945    89584.282    7429.1946     0.979621   -980.63285    2319.4671    7474.8552    8318.4593    6494.2695   -595.24978    26.896693   -300.15837    295.30837 
410710000   4.1071e+08    289.86918    89584.282    6729.9981     0.979621   -977.01669    2262.2879    6982.7038    7479.8198    5727.4707   -78.015333    257.80864   -137.04377    289.86637 
410720000   4.1072e+08    298.16754    89584.282    6287.3473     0.979621   -976.18384    2355.8553    5042.9085    7433.2931    6385.8404   -1632.9374   -97.724509    488.73622    298.16629 
410730000   4.1073e+08    291.67927    89584.282    7124.3192     0.979621   -1016.5543    2242.9781    7254.0422    6978.6722    7140.2431   -1009.0965    754.72857    880.88618    291.67648 
410740000   4.1074e+08    290.86611    89584.282    7731.6773     0.979621   -967.06289    2283.3825    7632.9648    7454.8182     8107.249   -992.73803    770.95887   -154.22013    290.86575 
410750000   4.1075e+08    291.42763    89584.282    7474.4612     0.979621   -973.89148    2282.8288    6151.2784    7494.5884    8777.5167   -1482.4595   -219.13959   -76.288989    291.43128 
410760000   4.1076e+08    291.08473    89584.282    6487.4159     0.979621   -992.18027    2260.7081       5494.3    7003.6217     6964.326    -879.8496    -252.7469    200.23142    291.08558 
410770000   4.1077e+08    293.87877    89584.282    6737.9208     0.979621    -986.7992    2297.3128    6147.3746    7126.6392    6939.7487   -881.30983    411.14608    264.12087    293.88095 
410780000   4.1078e+08    292.85483    89584.282    7511.7934     0.979621   -947.83644    2324.8329     7601.187    8536.0449    6398.1482   -977.29831   -685.87765   -80.574575    292.85788 
410790000   4.1079e+08    293.79045    89584.282    7715.2185     0.979621    -993.3111    2289.8139    6978.5883    8701.3791     7465.688   -739.13327    395.50063   -498.73219    293.79431 
410800000    4.108e+08    294.70457    89584.282    7436.7447     0.979621   -1061.7948    2231.5455     7005.693    8049.2084    7255.3327   -598.33658     377.2969   -462.54277    294.70236 
410810000   4.1081e+08    290.10425    89584.282    7106.7053     0.979621   -950.36566    2291.5659    6232.6878    8578.9854    6508.4427   -1125.8867   -191.16492   -42.457334    290.10646 
410820000   4.1082e+08    297.08656    89584.282    7171.3455     0.979621   -1005.1746    2314.7846     6836.459       7660.9    7016.6776   -827.18769    79.524777    292.83423    297.08795 
410830000   4.1083e+08    286.25816    89584.282    6213.1221     0.979621   -1029.6992     2169.252    5572.3261    7045.5247    6021.5155   -1271.1205    -994.7194   -271.26509    286.25988 
410840000   4.1084e+08    284.94495    89584.282    6539.3329     0.979621   -958.12694     2226.149    6005.4995    7322.6173     6289.882   -569.21754   -648.06652    394.87285    284.94542 
410850000   4.1085e+08    288.69506    89584.282    6351.9988     0.979621    -1034.875    2191.3086      6002.28    7009.4323     6044.284    -914.0135     181.5645    171.57402    288.69528 
410860000   4.1086e+08    290.42357    89584.282    7253.4276     0.979621   -1017.6067    2227.8932    6836.6246    8906.3135    6017.3448   -1030.9721   -167.10045      1213.87    290.42173 
410870000   4.1087e+08    295.62435    89584.282    6327.4737     0.979621   -985.53394     2318.085    5869.3182    6296.9444    6816.1584   -1477.1065    87.791066   -202.85407    295.62618 
410880000   4.1088e+08    290.22722    89584.282    5855.7709     0.979621   -1020.6789    2222.6269    4860.8158    6805.8874    5900.6096   -1231.1867    133.84802   -476.61421    290.23065 
410890000   4.1089e+08    294.85612    89584.282    6072.0336     0.979621   -990.95461    2304.0792    5838.6994    6041.2456    6336.1556   -1477.6319   -219.25001   -704.41363    294.85764 
410900000    4.109e+08    295.25921    89584.282    6684.4544     0.979621   -982.20731    2317.3312    6605.7573    7524.8665    5922.7394   -948.74553    378.89435    3.8434276    295.25918 
410910000   4.1091e+08     290.5027    89584.282    6980.2759     0.979621   -957.77094    2288.6132    6452.7725    7368.4709    7119.5843   -1012.0703   -831.50974   -371.78404    290.50573 
410920000   4.1092e+08     298.0856    89584.282    6701.1462     0.979621   -1001.3178    2329.8057     6654.711    7202.9216    6245.8059   -227.84501    33.153221    31.318755    298.08592 
410930000   4.1093e+08     296.9632    89584.282    6648.7779     0.979621   -981.56185    2337.0189    6146.9513    7176.5933    6622.7891   -252.98875    263.63361    1475.2116    296.96563 
410940000   4.1094e+08    294.38213    89584.282     6103.258     0.979621   -1013.6879    2276.0492    5956.7196    6712.5581    5640.4962   -952.49641   -798.87035    404.04688    294.38303 
410950000   4.1095e+08    292.78192    89584.282    6557.8235     0.979621   -996.01728    2275.8373    6101.2829    6902.4923    6669.6954   -358.77525   -574.75921    0.7412518     292.7791 
410960000   4.1096e+08    288.97877    89584.282    7271.2295     0.979621   -1005.0119    2224.3423     6367.247    7491.6873    7954.7542   -331.84879     259.3346   -131.08602    288.98124 
410970000   4.1097e+08    295.35341    89584.282    7038.6143     0.979621   -1075.4057    2225.1855    6519.2573    8096.0649    6500.5208   -927.20804    455.43151    1111.4758    295.35378 
410980000   4.1098e+08      295.594    89584.282    7567.5616     0.979621   -980.64424    2322.6355     7862.836    7223.3153    7616.5335   -711.45534   -99.181371    689.21114    295.59673 
410990000   4.1099e+08     290.7071    89584.282    7084.6378     0.979621    -920.1424     2328.526    6784.0704    7070.9403    7398.9028   -1037.7709   -417.01196    134.28799    290.70611 
411000000     4.11e+08    293.94096    89584.282    6815.7901     0.979621   -953.07993    2331.7271     5856.212    7213.6609    7377.4975   -948.85077    444.85329    198.21423    293.93932 
411010000   4.1101e+08    294.00302    89584.282    7378.3667     0.979621   -978.79041      2306.71    7354.9176    7021.8292    7758.3533   -921.48546   -391.59809    261.71556    294.00432 
411020000   4.1102e+08    286.90559    89584.282    6894.9007     0.979621   -1045.7037    2160.4826    5247.6582    7159.8862    8277.1575   -975.81058    612.20284     233.8936    286.90583 
411030000   4.1103e+08    285.03721    89584.282    7547.0689     0.979621   -904.24138    2281.0656    6483.5408    8191.3108    7966.3551   -482.93417      757.877   -592.37126    285.04123 
411040000   4.1104e+08    289.08909    89584.282    6891.8235     0.979621   -866.48902     2364.098    6262.1986    7083.9987    7329.2732   -1920.1312   -797.65753    -853.8128    289.08774 
411050000   4.1105e+08    295.81563    89584.282    6560.6621     0.979621   -944.49928    2361.2572    6883.5689    6189.1584    6609.2589   -369.95696    1504.3824     788.1715    295.81889 
411060000   4.1106e+08    294.15083    89584.282    6596.7045     0.979621   -974.23215    2312.9201    5869.0539    6141.3222    7779.7375   -670.83779    446.09236   -115.36944    294.14905 
411070000   4.1107e+08    288.03163    89584.282    7382.8106     0.979621   -1033.0576    2185.7122     7296.582    7472.4766    7379.3732   -781.99584    554.25512   -305.13588    288.03169 
411080000   4.1108e+08    291.11045    89584.282    6110.8264     0.979621   -1087.8249    2165.3509    6386.6806    6027.7616     5918.037   -1419.2872    173.61357    437.22913    291.10873 
411090000   4.1109e+08    291.21497    89584.282    6014.8361     0.979621   -1012.9577    2241.3862    5303.5852    6652.1629    6088.7601   -1158.8418    265.82096    292.50208    291.21474 
411100000    4.111e+08    294.49218    89584.282    6555.1621     0.979621    -955.2199     2335.747     6159.391     6611.757    6894.3384    265.46126    87.117636    100.12293    294.49241 
411110000   4.1111e+08    301.56756    89584.282    7478.1425     0.979621   -983.92748    2386.1071    7305.4647    7316.4802    7812.4827   -1272.2448   -586.39754   -108.47785    301.56742 
411120000   4.1112e+08     292.7972    89584.282    6652.9576     0.979621   -1017.1353    2254.8901    6705.9392    6489.5155     6763.418   -345.47257   -257.29847   -932.66982    292.79653 
411130000   4.1113e+08    282.57511    89584.282    7113.9082     0.979621   -895.26091     2262.532    7166.1107     7505.657    6669.9568   -927.47654   -1022.6402    306.42966    282.57512 
411140000   4.1114e+08    300.33202    89584.282    6663.2186     0.979621   -1006.8742    2349.3532    6445.4842    7697.2565    5846.9153   -546.05245    495.58651    -886.8113    300.33434 
411150000   4.1115e+08    290.36811    89584.282    6027.7649     0.979621   -1040.7149    2204.1652    5692.9384    6361.2697    6029.0865   -110.13296    709.11861    1038.3434    290.37038 
411160000   4.1116e+08    291.65361    89584.282    6607.5004     0.979621   -987.18129    2272.0644    6267.3193    6884.8616    6670.3204   -467.77215    268.47469     377.0913    291.65717 
411170000   4.1117e+08    289.20493    89584.282    7105.7202     0.979621   -928.15731    2303.7243    7631.8761    6930.1561    6755.1282   -778.45885    138.29525    676.78355    289.20702 
411180000   4.1118e+08    287.26118    89584.282    6695.9428     0.979621    -962.9964    2247.1637    5136.0623    7050.1472    7901.6189   -1199.1808    225.21869   -733.78532     287.2607 
411190000   4.1119e+08    294.48303    89584.282    6752.8416     0.979621   -977.60587    2313.2587    7753.2637    6875.8581    5629.4032    -783.6313    508.32842    292.45676     294.4837 
411200000    4.112e+08    298.38988    89584.282    7814.1759     0.979621   -976.27232    2358.2516    8109.5961    8211.5465     7121.385   -919.55224   -50.782615    547.59427    298.39037 
411210000   4.1121e+08    292.09467    89584.282    6904.3738     0.979621   -1041.5474    2222.6272    6356.6821    7841.7395    6514.6998   -84.927497   0.35898192   -301.42043    292.09313 
411220000   4.1122e+08    290.35991    89584.282    6853.8046     0.979621   -990.73617    2254.0523    7679.9207    6912.8206    5968.6726   -1120.7981   -589.17401   -399.78969    290.36233 
411230000   4.1123e+08    298.42987    89584.282    6631.0928     0.979621    -1018.906    2316.0648    6203.0489    6559.6339    7130.5955   -518.58636    138.06501    957.97197    298.42635 
411240000   4.1124e+08    292.17704    89584.282    6847.5253     0.979621   -1053.1995    2211.8955    6167.7148    6655.7612       7719.1   -1209.5979    863.87359   -241.92221    292.17547 
411250000   4.1125e+08    286.01282    89584.282     7055.666     0.979621   -1000.1729    2196.0367    6424.1985       8284.5    6458.2993   -1152.7085    471.73195    -48.09719    286.00961 
411260000   4.1126e+08    286.78266    89584.282    7062.7728     0.979621   -971.07674    2233.7358    7181.8228    6935.4502    7071.0455   -1506.0629   -19.936392   -608.51856     286.7845 
411270000   4.1127e+08    291.18016    89584.282    7697.3227     0.979621   -1043.0201    2210.9348     7791.145    7552.4864    7748.3367   -944.11802    200.07389   -321.25867    291.17949 
411280000   4.1128e+08    296.37314    89584.282    7019.9212     0.979621   -999.17845    2312.8082    5630.1543    7960.6873    7468.9219   -1405.8223    64.451629   -55.289486    296.37398 
411290000   4.1129e+08    298.19859    89584.282    6642.1733     0.979621   -1024.9281    2307.4581    6259.0782    7040.7619      6626.68   -1521.6257    286.70518    954.35452    298.19771 
411300000    4.113e+08    292.24538    89584.282    6304.9273     0.979621   -961.90969     2303.949    5806.7543    6330.4222    6777.6053   -990.95178   -338.42132    523.75521    292.24703 
411310000   4.1131e+08    299.70951    89584.282    7684.0395     0.979621   -881.76188    2467.5089    7407.2288    7852.5263    7792.3634   -1128.0009    733.69915    610.81303    299.70765 
411320000   4.1132e+08    298.54202    89584.282    6213.2537     0.979621   -999.34565    2336.8785    4331.8837    7372.0593    6935.8182   -1021.1926    14.706778    78.258821    298.54301 
411330000   4.1133e+08    290.46722    89584.282    6068.5526     0.979621   -994.02977     2251.958    5295.7993    6561.5321    6348.3264   -1329.9244    163.69787   -205.02039    290.46841 
411340000   4.1134e+08    288.62288    89584.282    6630.8375     0.979621   -935.11289    2290.2642    7139.0341    5941.3841    6812.0943   -850.43462    255.67901    72.206334    288.62091 
411350000   4.1135e+08    288.08664    89584.282    6907.8953     0.979621   -995.78365     2223.601    6591.0492    7043.0363    7089.6003   -1325.1834     536.1591    818.92644     288.0902 
411360000   4.1136e+08    291.92025    89584.282     7052.061     0.979621   -998.10062    2264.1248     7536.151    7139.2038    6480.8281   -77.731998   -455.76511   -441.55905    291.91881 
411370000   4.1137e+08     295.4962    89584.282    7449.8095     0.979621   -976.76354    2325.4233     6907.403    7492.5789    7949.4466   -453.31296    203.47739   -196.22828    295.49657 
411380000   4.1138e+08    290.64606    89584.282    7018.0338     0.979621   -987.16903    2260.8173    6303.0486    7922.8536    6828.1992   -1122.6108    128.22817   -141.98186    290.64646 
411390000   4.1139e+08     296.5419    89584.282     6719.254     0.979621    -929.5355    2384.3371    5565.7555    7029.9557    7562.0508   -1639.0235    156.04086   -870.35903    296.54608 
411400000    4.114e+08    298.01619    89584.282    6848.2198     0.979621   -1009.2341    2321.1138    6262.2757    7401.0609    6881.3229   -1631.4222   -429.74496      106.901    298.01791 
411410000   4.1141e+08     300.9284    89584.282    7573.7968     0.979621   -945.55248    2417.3395     8205.839    7917.1433    6598.4079   -204.56208    886.43676   -1015.4941    300.93198 
411420000   4.1142e+08    294.19178    89584.282     7533.683     0.979621   -985.09046    2302.5194    8049.5035    6921.2631    7630.2824   -250.10072    195.62113    542.92177    294.18963 
411430000   4.1143e+08    288.30936    89584.282    6801.0543     0.979621   -960.46764    2261.4059    6951.7978    6473.1352    6978.2299   -1484.0458   -234.35157   -212.56494    288.30894 
411440000   4.1144e+08    287.10207    89584.282    5731.5286     0.979621    -985.8655    2222.5164    5889.5977    5370.9676    5934.0206   -1107.9088     443.8064   -72.917967    287.10279 
411450000   4.1145e+08    290.23644    89584.282    6435.7023     0.979621   -998.96738    2244.4413    5505.7661    6474.2175    7327.1233   -870.24041   -20.231927    383.73356    290.23688 
411460000   4.1146e+08    292.03555    89584.282    7343.3671     0.979621    -942.5238    2320.9901    5108.4856    7828.4647     9093.151   -668.53134    193.10014    189.52914    292.03567 
411470000   4.1147e+08    295.23131    89584.282    7351.1941     0.979621   -888.66728    2410.5594     7377.053    7611.6485    7064.8809   -533.04799    473.11298    385.94807    295.23408 
411480000   4.1148e+08    295.62388    89584.282    6528.5993     0.979621   -1002.7185    2300.8952    6578.6749    7274.9685    5732.1545   -228.79298    883.16797    738.78823    295.62516 
411490000   4.1149e+08    293.62431    89584.282    7339.1394     0.979621     -938.262    2343.0064    7919.0694    7452.3552    6645.9938   -1207.8206     45.50196    134.95526    293.62679 
411500000    4.115e+08    294.21891    89584.282    6158.6364     0.979621   -976.99761    2310.9155     5544.182    6557.0114    6374.7157   -839.38087    519.61976   -229.88321    294.21859 
411510000   4.1151e+08    289.52313    89584.282    5970.3413     0.979621   -962.65181    2272.7856    6051.3083    5364.4916    6495.2241   -1156.4582    473.91643    443.72337    289.52441 
411520000   4.1152e+08    292.48021    89584.282    6522.2629     0.979621   -962.89078    2305.5922     5107.253    7863.8708    6595.6649   -674.55108    -193.2045    224.49507    292.48111 
411530000   4.1153e+08    289.68262    89584.282    7089.7407     0.979621   -979.97533    2257.2444    6071.8809    8173.9707    7023.3705   -1233.7666   -310.40306    867.78152    289.68186 
411540000   4.1154e+08      291.469    89584.282    6059.2884     0.979621   -1029.0936    2228.0891    6119.3629    6542.0329    5516.4694   -933.63293    715.44875   -262.36477    291.46713 
411550000   4.1155e+08    299.89057    89584.282    7141.9557     0.979621   -992.30717     2358.987    6220.3428    7891.7868    7313.7375   -761.55874   -750.24959   -545.32169    299.89299 
411560000   4.1156e+08    291.67671    89584.282    6781.7209     0.979621   -971.02905    2288.4748    6385.2565    6694.5912    7265.3148   -1175.4513   -29.000273   -489.56723    291.67619 
411570000   4.1157e+08    294.02747    89584.282    7531.0935     0.979621   -993.14391    2292.6298    6946.6851    7631.4151    8015.1803   -747.01054    64.611011   -516.32185    294.02907 
411580000   4.1158e+08    291.85642    89584.282    6389.6069     0.979621   -984.78173    2276.7304    6675.0957     6649.794     5843.931   -1086.4805   -685.00962    508.12232    291.85825 
411590000   4.1159e+08    295.96104    89584.282    6837.4665     0.979621   -1003.0764    2304.3051    6965.6935    7273.3126    6273.3935   -1096.9395    226.75431    429.32649    295.96169 
411600000    4.116e+08    287.40436    89584.282    6569.7123     0.979621   -993.75512    2218.0049    7031.8363      6994.46    5682.8406   -1033.1302    451.46953    204.92836    287.40435 
411610000   4.1161e+08    285.65745    89584.282    6352.0514     0.979621   -983.11395    2209.1243    5774.9812    6028.7194    7252.4535   -1148.9037       455.89    796.21131    285.65928 
411620000   4.1162e+08    287.72074    89584.282    7631.3346     0.979621   -1006.3176    2208.9781    6740.4148    7853.3627    8300.2264   -514.14489    205.61621    373.58572    287.72006 
411630000   4.1163e+08    295.39538    89584.282    7126.9389     0.979621   -980.62811    2320.4321    5589.1757    8067.7313    7723.9097   -729.99204   -606.13661   -348.97097    295.39823 
411640000   4.1164e+08    296.15613    89584.282    6508.8908     0.979621   -1013.9059    2295.6556    5598.1301    7103.6527    6824.8896   -956.86545    27.784761   -263.70626    296.15717 
411650000   4.1165e+08    291.40052    89584.282    7797.3602     0.979621   -944.09675    2312.3206    7896.0094    8544.1887    6951.8826   -829.35723    350.87974   -59.585296     291.4022 
411660000   4.1166e+08    292.81378    89584.282    7081.0594     0.979621   -980.65044    2291.5602    6140.1239    7171.6401    7931.4142   -611.45494    227.63403    822.37459    292.81652 
411670000   4.1167e+08     289.8727    89584.282    7420.0737     0.979621    -941.0282    2298.3158    6752.9361    8119.8023    7387.4826   -95.661375    439.02737    604.09659    289.87382 
411680000   4.1168e+08    291.11176    89584.282    5867.9406     0.979621   -946.52134    2306.6692    4055.9228    7730.1444    5817.7545   -741.31576    6.7243017   -697.74918    291.11008 
411690000   4.1169e+08      300.657    89584.282    6606.7825     0.979621   -1030.8303    2329.0288    6531.5129    6087.8785    7200.9561   -742.10575   -56.442501   -892.92291    300.65702 
411700000    4.117e+08    288.11331    89584.282    7830.2547     0.979621   -924.28416    2295.3985    7144.8436    8348.3107    7997.6098   -650.43112    648.19509    20.609184    288.11347 
411710000   4.1171e+08    288.40172    89584.282    7306.4538     0.979621   -991.71019    2231.1955    5867.9323    7944.3822    8107.0468    -1220.957    256.60254   -215.23215    288.39924 
411720000   4.1172e+08    287.38241    89584.282    7261.5828     0.979621    -998.6973    2212.8175    6331.9983    7539.9997    7912.7505     -406.089    450.70216    152.95258    287.38233 
411730000   4.1173e+08    298.47737    89584.282    6693.8728     0.979621   -1021.7176     2313.784    6173.9907     6763.251    7144.3768   -757.40955    162.93812   -140.04137    298.47867 
411740000   4.1174e+08    294.38997    89584.282    5424.9363     0.979621   -976.57507    2313.2496    5033.7513    6185.7447    5055.3129    -1590.497    291.52013   -539.32774    294.38912 
411750000   4.1175e+08    288.10097    89584.282    6664.5661     0.979621   -996.12069    2223.4241    4792.3202    7838.5993     7362.779    -669.1573    138.73387    1087.3502    288.10293 
411760000   4.1176e+08    299.86925    89584.282    7039.6661     0.979621   -965.60987     2385.446     5788.334     8387.674    6942.9901   -527.58372    98.128176   -629.19597    299.86964 
411770000   4.1177e+08    289.19352    89584.282    7019.7862     0.979621   -931.34664    2300.4074    6626.7253     7549.787    6882.8463   -686.23077    291.89959    111.19087    289.19454 
411780000   4.1178e+08    290.19971    89584.282     7109.993     0.979621    -995.3198    2247.6785    6763.3345    7157.9684    7408.6763      -702.67   -644.69805    230.97268    290.19903 
411790000   4.1179e+08     289.6984    89584.282     6613.611     0.979621   -945.57843    2291.8176    5624.5757    7568.5466    6647.7106   -420.09327   -641.72129   -1008.5475     289.6981 
411800000    4.118e+08    291.14784    89584.282    7157.1556     0.979621   -975.97111    2277.6225     6516.978    7640.8352    7313.6536   -591.84103    370.57245   -663.31524    291.14989 
411810000   4.1181e+08    297.13253    89584.282    6789.9229     0.979621   -1002.7545    2317.7185     7781.602    6568.7846    6019.3823    85.893615    -538.1849   -802.99208    297.13091 
411820000   4.1182e+08    295.14637    89584.282    6930.1566     0.979621   -1080.1317    2218.1458    6664.2883    6863.5452    7262.6361   -998.54657   -751.04697   -681.87552    295.14359 
411830000   4.1183e+08    288.45545    89584.282    7662.8421     0.979621   -910.50361    2313.0025    6529.7682     7926.032    8532.7259   -809.50564    381.54561   -159.41208    288.45187 
411840000   4.1184e+08    295.15316    89584.282     7512.619     0.979621   -1003.7688    2294.5846    6592.3146     8115.399    7830.1435   -540.72867   -998.47408    600.82196    295.15314 
411850000   4.1185e+08    296.46291    89584.282     5994.635     0.979621   -1047.0194    2265.9705    4932.4151     7312.876     5738.614   -1299.3309   -147.55713   -295.31571    296.46197 
411860000   4.1186e+08    290.16063    89584.282    6653.8444     0.979621    -969.8716    2272.6899    6913.4705    6225.1027    6822.9598   -1304.4246    482.36859   -21.059425    290.15885 
411870000   4.1187e+08    293.04814    89584.282    6860.4978     0.979621   -955.60615    2319.2235    8081.4058    7353.2115    5146.8762   -889.27699   -96.957294   -164.99598    293.04994 
411880000   4.1188e+08    294.19715    89584.282    6706.6385     0.979621   -1003.2901    2284.3797    6361.8268    7480.2203    6277.8686    -428.7111    577.23325   -224.13463    294.19811 
411890000   4.1189e+08    292.09315    89584.282    7101.3851     0.979621   -970.08792    2294.0697    7514.4337    7211.6893    6578.0323   -493.53492   -624.89743    -34.78026    292.09351 
411900000    4.119e+08    291.54145    89584.282    6627.0576     0.979621   -986.21617    2271.7761    6207.0258    7134.4335    6539.7134   -1124.1184    441.74352    366.08658    291.54063 
411910000   4.1191e+08    296.06421    89584.282    7079.5903     0.979621   -925.59455    2382.9399    6710.5618    8099.6675    6428.5415   -661.61997   -521.03536   -152.63628    296.06469 
411920000   4.1192e+08    297.47462    89584.282    6943.2216     0.979621   -987.87272    2336.4231    6071.2929    8104.9548    6653.4171   -440.74537   -383.84619   -567.63997    297.47609 
411930000   4.1193e+08    289.49659    89584.282    7412.0933     0.979621   -1013.7818    2221.3591    7112.3776    7517.6764    7606.2259    -787.1114   -346.01405     597.5251    289.49598 
411940000   4.1194e+08    286.72638    89584.282     6680.205     0.979621    -969.4997    2234.6839    5567.4573    7243.9286    7229.2292   -613.36415    77.027158   -740.67147    286.72705 
411950000   4.1195e+08    295.13061    89584.282    6864.0692     0.979621   -981.04045    2317.0609      6660.38    7011.1223    6920.7054   -412.64103    33.278309   -10.870704    295.13068 
411960000   4.1196e+08    291.34749    89584.282    6394.8333     0.979621   -956.80767    2299.0171    4431.8629    8665.4136    6087.2233   -883.55015    32.905177   -15.869042    291.34538 
411970000   4.1197e+08    293.57063    89584.282     6209.679     0.979621   -986.36444     2294.304    5836.8472    6076.1888     6716.001   -746.51335   -162.03712    428.10563    293.57189 
411980000   4.1198e+08    290.21388    89584.282    8131.3915     0.979621   -951.77663    2291.3799    8110.2494    8058.5943    8225.3307   -1047.6397    480.08023   -281.29173    290.21844 
411990000   4.1199e+08    286.65733    89584.282    7150.7144     0.979621   -1047.6838    2155.7282     7714.192    7076.1352    6661.8159   -406.87576    439.36042    -447.0719    286.65741 
412000000     4.12e+08    297.00856    89584.282    6272.5222     0.979621   -949.84735    2369.2402    5389.1813     7201.296    6227.0894    -451.6114   -112.67949    439.61422    297.00954 
412010000   4.1201e+08    299.68627    89584.282    7660.7511     0.979621   -971.01867    2377.9924    7091.2271    8118.2839    7772.7422   -942.93837   -329.01577    -421.9242    299.68574 
412020000   4.1202e+08    290.63922    89584.282    5969.2556     0.979621    -936.8047    2311.1051    5360.1014    6855.6582    5692.0073   -1252.9912    36.246724    750.27019    290.64189 
412030000   4.1203e+08    288.82168    89584.282    7128.6479     0.979621   -968.36514    2259.2336    6962.8611    6865.8281    7557.2546   -882.14772   -93.360923   -189.32078    288.82461 
412040000   4.1204e+08    300.51007    89584.282    7046.4215     0.979621   -1081.8202    2276.3969    6080.4221    7105.8758    7952.9665   -935.75981   -44.460911   -679.30362    300.51156 
412050000   4.1205e+08    293.66344    89584.282    6920.9346     0.979621   -946.44935    2335.2563    7120.4567    7472.2473    6170.0997   -1045.3604   -51.270989    246.83336    293.66295 
412060000   4.1206e+08    290.06063    89584.282    7457.1607     0.979621   -904.33466    2337.1094    6214.2736     8603.872    7553.3366   -618.42473    -188.7672   -565.44959    290.06084 
412070000   4.1207e+08      294.407    89584.282    7001.0774     0.979621   -993.97719    2296.0378    7165.3811    7049.9329    6787.9182    -1370.941       1095.1   -113.86327     294.4103 
412080000   4.1208e+08    301.11371    89584.282     7518.702     0.979621   -1029.0664    2335.8964    7613.0675    7397.5108    7545.5278    -251.0922    336.35672   -353.26741    301.11166 
412090000   4.1209e+08    288.53771    89584.282    6373.2008     0.979621   -968.42162    2256.0037    6144.6428    7110.1766    5864.7832   -520.92878    706.48912   -384.73428    288.54062 
412100000    4.121e+08    292.31618    89584.282    6709.7922     0.979621   -1031.9975    2234.6525    5945.3043    7175.7878    7008.2845    258.43419   -393.48757   -139.37455    292.31701 
412110000   4.1211e+08    291.02472    89584.282    8023.1901     0.979621   -924.82897    2327.3888    6270.8049    9274.0923    8524.6731   -773.02646     148.9151   -211.97207    291.02368 
412120000   4.1212e+08    294.81908    89584.282    6546.2669     0.979621   -1015.9923    2278.6276    5948.7018    7101.3991    6588.6997   -824.06602    338.37086    965.15895    294.81905 
412130000   4.1213e+08     294.5537    89584.282    7794.5018     0.979621   -940.17291    2351.4815    6709.1812    8433.8854    8240.4389   -989.31627    882.66689    419.82234    294.55307 
412140000   4.1214e+08    283.77806    89584.282    8069.0414     0.979621   -1066.3003    2104.9357    8823.3578    7509.3496    7874.4168   -399.08729   -472.05853    153.24285    283.77763 
412150000   4.1215e+08    290.66606    89584.282     6084.221     0.979621    -1007.547    2240.6627    4768.1854    7262.6203    6221.8574   -1908.5235   -329.54014    -296.3315    290.66572 
412160000   4.1216e+08    295.30597    89584.282    6677.9749     0.979621   -965.66761    2334.3934     5736.099     7135.072    7162.7537    111.65848   -236.58846    232.20917    295.30561 
412170000   4.1217e+08    294.20173    89584.282    6707.6317     0.979621   -1070.5626    2217.1585    6111.9686    7338.4059    6672.5205   -834.20793    442.80033    -35.46526    294.20204 
412180000   4.1218e+08    291.90167    89584.282    5484.4881     0.979621   -963.16919    2298.8486    4441.5386    6689.9838     5321.942   -1010.4043    516.76554    172.65582    291.90162 
412190000   4.1219e+08     304.6007    89584.282    6660.8979     0.979621   -1012.1861     2391.744    6256.9642    7241.9225    6483.8071   -662.53027    295.04822    573.35747    304.60303 
412200000    4.122e+08    297.47439    89584.282    7323.1561     0.979621   -1017.8879    2306.4053    6862.8825    7857.6533    7248.9324    335.59075    560.12383   -919.33367     297.4773 
412210000   4.1221e+08    295.39772    89584.282    6571.2587     0.979621   -955.80668    2345.2797    7077.8141    7092.0567    5543.9052    19.994929    573.51113    -419.7304    295.39462 
412220000   4.1222e+08    295.52856    89584.282    6441.6261     0.979621   -951.51301    2351.0354    4853.8097    6940.8165    7530.2522   -932.50632   -91.303416     274.1536    295.52395 
412230000   4.1223e+08    288.99647    89584.282     7266.764     0.979621   -986.19321    2243.3587    6629.9118    7676.1641     7494.216   -365.01271    289.11145   -137.28399    288.99773 
412240000   4.1224e+08    289.17765    89584.282    6564.4377     0.979621   -931.60856    2299.9681    5614.3513    7232.5344    6846.4275   -1309.2774   -586.56313     932.5457    289.18016 
412250000   4.1225e+08    293.02777    89584.282    6696.6531     0.979621   -953.50236    2321.0996     5269.443    7420.4753    7400.0411   -885.90709    407.26425   -222.38881     293.0268 
412260000   4.1226e+08    295.74586    89584.282      6934.63     0.979621    -990.4056    2314.5712    7010.8012    7060.6825    6732.4064   -268.53495    53.501541    -167.4516     295.7474 
412270000   4.1227e+08     302.2196    89584.282    7992.9707     0.979621   -958.83499    2418.4862    7558.8971      8594.94    7825.0751   -799.19583    371.03634    217.25437    302.21994 
412280000   4.1228e+08    292.25611    89584.282    8022.3433     0.979621   -947.49647    2318.4822    7976.0615    7624.3921    8466.5765    -747.0775    261.82183    167.72637    292.25696 
412290000   4.1229e+08    291.39956    89584.282     7159.243     0.979621   -986.39479    2270.0119    6626.9029     7362.213    7488.6131   -248.32194    1079.0746    111.22512    291.39514 
412300000    4.123e+08     295.9033    89584.282    7347.1452     0.979621   -942.01103    2364.7252    7886.5568    7619.0771    6535.8018   -789.39867    720.82015    123.47795    295.90242 
412310000   4.1231e+08    292.31567    89584.282    6768.4229     0.979621   -976.33341    2290.3109    6486.5179    8071.9286    5746.8223   -409.39179    163.83043     492.7724    292.32008 
412320000   4.1232e+08    295.66739    89584.282    6897.7679     0.979621   -986.45246    2317.6474    6464.0006    7459.9633    6769.3398   -1952.5969    73.473073    297.94319    295.66611 
412330000   4.1233e+08    300.34968    89584.282    6920.1073     0.979621   -1015.6303    2340.7945    5979.5219    7163.8494    7616.9507   -887.39553    110.74285     469.6755    300.35067 
412340000   4.1234e+08    291.67801    89584.282    6821.8621     0.979621     -987.627    2271.8914    6159.8154    6952.9106    7352.8603    -1709.892    239.35824    327.15824     291.6802 
412350000   4.1235e+08    293.71165    89584.282    5534.9495     0.979621   -932.09512    2350.1493    4743.0663    5908.3787    5953.4035   -1060.6775    -366.3441    494.34006    293.71029 
412360000   4.1236e+08     299.6945    89584.282    6855.9513     0.979621   -941.92859    2407.1745    5872.3481    6408.2697    8287.2362   -1394.1653    74.350044    91.690598    299.69473 
412370000   4.1237e+08     292.4962    89584.282    6874.7377     0.979621   -994.67937    2273.9823    5895.4763    8192.7265    6536.0101   -413.78806   -731.02629    558.85847    292.49335 
412380000   4.1238e+08     287.6547    89584.282    6361.6504     0.979621   -1021.1362    2193.4214    5425.1934    6287.4821    7372.2758   -1509.4971   -551.43432    508.87265    287.65667 
412390000   4.1239e+08    294.00652    89584.282    6741.6701     0.979621   -955.08025    2330.4594    5356.9749    7154.4843     7713.551   -107.60563    -26.92908    266.01377    294.00369 
412400000    4.124e+08    295.53593    89584.282    7611.3946     0.979621    -957.3679    2345.2629    6520.4435    6861.1749    9452.5655   -1334.5454   -354.57452    714.59876     295.5367 
412410000   4.1241e+08     291.7925    89584.282    7573.3242     0.979621   -892.74215    2368.0557    7990.9379     7584.431    7144.6038   -1402.1514    328.31601    865.78085    291.79048 
412420000   4.1242e+08    289.14927    89584.282    5955.8589     0.979621   -904.04839    2327.2112    4999.6426    6682.5337    6185.4005   -1771.5392    132.50816    119.94834    289.14932 
412430000   4.1243e+08    297.09494    89584.282    5819.2049     0.979621   -990.51585     2329.537    5397.2812    6530.9551    5529.3784   -1317.6543    616.81799    207.89308    297.08928 
412440000   4.1244e+08    292.31364    89584.282    6574.2656     0.979621   -1084.9062    2181.7154    6963.9818    6381.9106    6376.9043   -1433.8718    421.14401   -95.538067    292.31241 
412450000   4.1245e+08     289.7949    89584.282    7752.3952     0.979621   -942.75844     2295.716    7137.6268    8577.3757    7542.1831    -479.6401    -98.95408    142.33622    289.79215 
412460000   4.1246e+08    302.66226    89584.282    6535.2707     0.979621   -936.90001     2445.368    6219.8129    6939.3477    6446.6516   -1006.1882    1184.6777   -261.41255    302.66369 
412470000   4.1247e+08    294.02888    89584.282    7213.6879     0.979621   -949.20285    2336.5867    6723.7572    8267.2889    6650.0177   -977.66019   -266.30691    178.57285    294.02794 
412480000   4.1248e+08    298.07242    89584.282    6409.9295     0.979621   -964.57887    2366.3974    5535.4091    7387.6853    6306.6942   -863.87676    762.63361    60.913486    298.07074 
412490000   4.1249e+08    293.65496    89584.282    6504.7142     0.979621   -997.16809    2284.4427    5793.6417    6996.5699    6723.9311   -1654.5256    -322.7779    637.90729    293.65655 
412500000    4.125e+08    299.86001    89584.282    6211.8431     0.979621   -983.19737    2367.7553    6276.5543    6451.4192    5907.5558    19.947035   -105.77199   -235.27296    299.86099 
412510000   4.1251e+08    289.09586    89584.282    6768.4553     0.979621   -909.29829    2321.3644    6315.3751    7166.4293    6823.5616   -1475.5375   -106.19969   -93.839425    289.09599 
412520000   4.1252e+08    296.41703    89584.282     6489.479     0.979621   -974.85838    2337.6188    5474.2747    6979.6231    7014.5392   -856.35359   -235.05186   -322.80183    296.41903 
412530000   4.1253e+08    288.78069    89584.282    6568.8694     0.979621   -851.47606    2375.6646    5935.9982    6907.8492    6862.7609   -1100.6086    503.22383   -374.44686    288.78208 
412540000   4.1254e+08    290.92932    89584.282    6439.8546     0.979621   -842.40259    2408.7492    6104.1962    6603.4236    6611.9439   -838.42753   -387.68019   -309.50811    290.93143 
412550000   4.1255e+08    290.58083    89584.282    6496.7613     0.979621   -1002.3618    2244.8954    6518.3034    7161.9933    5809.9873   -554.08674   -71.398258   -685.52913    290.57895 
412560000   4.1256e+08    291.28795    89584.282    7088.6969     0.979621   -946.56397    2308.5954    7106.7728    7332.2007    6827.1171   -741.43994    686.72567    46.007712     291.2896 
412570000   4.1257e+08    290.07806    89584.282    6748.4699     0.979621   -1005.8056    2235.8332    6621.3873    7386.4259    6237.5964   -282.62696   -214.57176     390.6335    290.07853 
412580000   4.1258e+08     295.9782    89584.282    7185.7369     0.979621   -907.85625     2399.717    7277.4094    6834.2518    7445.5497   -1607.5619    797.69348     182.4879    295.97681 
412590000   4.1259e+08    293.90114    89584.282    8023.3224     0.979621   -945.64239    2338.7196      6958.18     8480.256    8631.5313   -1260.6635    652.11402    495.75036    293.90472 
412600000    4.126e+08    286.77833    89584.282     6208.659     0.979621   -850.72635    2354.0378    6263.3512    6658.7877    5703.8381   -1193.8406   -376.49292   -553.54616    286.77457 
412610000   4.1261e+08    289.00601    89584.282    6261.8289     0.979621   -899.12838    2330.5303    6299.9779    6527.6335    5957.8751    -1216.143      268.141   -1101.4395    289.00844 
412620000   4.1262e+08    290.45563    89584.282    6539.4335     0.979621   -973.39095    2272.4672    6124.1852    6124.0987    7370.0167    -1308.108   -107.40641   -319.91287    290.45297 
412630000   4.1263e+08    291.44926    89584.282    7183.9951     0.979621   -978.87682    2278.0853    6087.1465    7876.2271    7588.6117   -1041.7546    586.30084    1133.4015     291.4447 
412640000   4.1264e+08    294.98085    89584.282    7619.0476     0.979621   -948.74093    2347.6869    6997.6472    7848.9364    8010.5591   -1109.5694    48.086862    601.21563    294.98142 
412650000   4.1265e+08    289.75798    89584.282    6413.7391     0.979621   -929.37816    2308.6837    5571.6606    7139.7452    6529.8114   -1057.2025   -721.44106    783.58486    289.75824 
412660000   4.1266e+08    292.75343    89584.282    6802.4954     0.979621   -988.54513    2282.9911    5713.4189     7952.793    6741.2743   -796.71208   -77.591611    250.60037    292.75282 
412670000   4.1267e+08    300.49259    89584.282    7696.9805     0.979621   -893.77813    2464.2436    7245.9651    8227.2762    7617.7002   -988.81429   -478.68121     174.6519    300.49343 
412680000   4.1268e+08    292.95781    89584.282    6916.1853     0.979621   -975.46997    2298.3502    6905.9396    7186.9712    6655.6449   -440.50025    153.88797    201.23488    292.95598 
412690000   4.1269e+08    291.89895    89584.282    6434.4414     0.979621   -963.72092    2298.2665    5349.7616     7752.827    6200.7355   -572.58012    598.76953    374.27542    291.89685 
412700000    4.127e+08    294.70493    89584.282    7084.0827     0.979621   -953.55991    2339.7844    7902.7835    6756.4945    6592.9701   -543.19276    149.12285   -56.994934    294.70338 
412710000   4.1271e+08    292.76967    89584.282    7523.6079     0.979621   -1000.0261    2271.6916    6817.8544    7910.1348    7842.8344   -1026.2135    108.63896       62.621    292.76924 
412720000   4.1272e+08    289.26318    89584.282    7515.1657     0.979621   -1050.9725    2181.5599    7722.0674    7440.0671    7383.3626    161.17417    -383.4785   -322.74928     289.2623 
412730000   4.1273e+08    288.98532    89584.282    6669.2338     0.979621   -923.78294    2305.6445    6189.8305    7258.1031    6559.7679   -1770.0134   -376.51377    156.69358    288.98516 
412740000   4.1274e+08    290.98896    89584.282    7241.4964     0.979621    -943.7405    2308.0776    7589.1492    7584.9452    6550.3948   -288.81878   -256.95196   -530.24979    290.99089 
412750000   4.1275e+08    299.05957    89584.282    6872.1323     0.979621   -841.89915    2500.1086    7150.0552    7128.1014    6338.2404   -1307.0677   -737.67368    72.044431    299.05976 
412760000   4.1276e+08     293.5374    89584.282    6824.6857     0.979621   -957.81801    2322.4791     5969.106    7349.6351    7155.3161   -914.56054   -573.60479    -404.1571    293.53701 
412770000   4.1277e+08    299.05898    89584.282    6259.8395     0.979621   -997.73187    2344.2693    5936.7316    7037.3404    5805.4466   -189.29142    378.15406   -872.24309    299.05841 
412780000   4.1278e+08    299.23891    89584.282     6573.367     0.979621    -983.4165    2360.5953    6132.1776    6695.4387    6892.4847   -660.96954    915.88177    486.65844    299.24189 
412790000   4.1279e+08    283.71439    89584.282    5328.7949     0.979621   -987.95323    2182.5712    5645.3306    5397.5515    4943.5026   -1210.1643   -742.33876   -263.19419     283.7152 
412800000    4.128e+08    290.55677    89584.282    7713.1231     0.979621   -976.45756    2270.5308    6072.1597    8456.3395    8610.8701   -1182.1681   -587.24798   -54.669777    290.56018 
412810000   4.1281e+08    297.55728    89584.282      6689.87     0.979621   -1009.2194    2316.0001    6654.5308    6921.9165    6493.1626   -1050.6053    5.4991038    239.81274    297.55684 
412820000   4.1282e+08     298.4461    89584.282    6188.8913     0.979621   -895.41628    2439.7359    5630.3915    5745.6178    7190.6646   -723.92138    472.31548   -667.15165    298.44156 
412830000   4.1283e+08    294.34096    89584.282    6431.8518     0.979621   -905.57597    2383.7009    5141.3928    7738.2078    6415.9547   -677.42375   -211.73902   -548.31465    294.34055 
412840000   4.1284e+08    293.75005    89584.282     7196.385     0.979621   -1012.8486    2269.8249      6881.84    8321.0922    6386.2227   -615.52817    87.553606    262.75071    293.74836 
412850000   4.1285e+08    289.04642    89584.282    7155.0633     0.979621   -930.41737    2299.6928    6922.4931    7279.8831    7262.8137    -482.0968    294.35545    184.48673    289.05029 
412860000   4.1286e+08    288.13123    89584.282    6441.4666     0.979621   -954.69648    2265.1864    4846.2717    6650.3144    7827.8139   -634.42707    18.038478   -85.089049    288.13259 
412870000   4.1287e+08    291.66398    89584.282    6578.7717     0.979621   -1016.1767    2243.1849    5411.4043    7166.3783    7158.5325   -1566.5235   -545.89856   -560.40283    291.66792 
412880000   4.1288e+08    295.19523    89584.282    6977.2564     0.979621   -1005.2719    2293.5516    5721.9305    8005.4674    7204.3712   -304.14235    49.680529    489.01986     295.1947 
412890000   4.1289e+08    292.46533    89584.282    6699.0422     0.979621   -1065.7493    2202.5673    7155.7881    6791.2918    6150.0466   -1131.6898     482.5351     554.6249     292.4648 
412900000    4.129e+08    293.64631    89584.282     7454.507     0.979621   -1014.2973    2267.2169    7716.3231    8170.7427     6476.455   -1133.6289   -186.44738   -480.76745    293.64838 
412910000   4.1291e+08    283.62921    89584.282     6155.842     0.979621   -966.73199    2202.8405    5665.9053    6214.0717     6587.549    -693.7942    460.88947    809.55983       283.63 
412920000   4.1292e+08    290.79595    89584.282    6328.1845     0.979621   -922.84986    2326.8115    5077.7092    6720.3049    7186.5394    -475.2335   -64.574525   -198.42486    290.79572 
412930000   4.1293e+08    294.82749    89584.282    7906.1196     0.979621    -1021.552     2273.162    7847.1533     8021.276    7849.9296   -843.89219    323.91094   -619.08866    294.83052 
412940000   4.1294e+08    293.98796    89584.282    6166.7582     0.979621   -959.18342    2326.1488     5777.222     6805.579    5917.4737     -944.984   -453.87685   -709.85968    293.98917 
412950000   4.1295e+08    291.36085    89584.282    6961.1479     0.979621   -924.57458    2331.3995    6625.3516    7440.1346    6817.9575   -662.52029    490.90318   -787.72284    291.36426 
412960000   4.1296e+08    294.12532    89584.282     6580.823     0.979621   -878.75124    2408.1159    6754.8096    6816.7178    6170.9417   -1550.8895    373.37943   -549.62873    294.12672 
412970000   4.1297e+08    292.01777    89584.282    7296.7007     0.979621   -981.68175    2281.6335    6320.9718    7916.2072     7652.923   -619.72358   -458.46948   -44.396274    292.01734 
412980000   4.1298e+08    284.56027    89584.282    6638.4953     0.979621   -945.15463    2234.8225    5960.6095    7223.5212    6731.3553   -842.19273    668.49032    175.70828    284.56397 
412990000   4.1299e+08    296.97737    89584.282    6744.5773     0.979621   -1016.4051    2302.3339    5812.4442    7625.5671    6795.7207    -1476.668    44.650771   -129.88569    296.97403 
413000000     4.13e+08    295.79757    89584.282     6475.036     0.979621   -874.25329    2431.3013    5059.3423    7918.8992    6446.8667     -1537.82     161.9357    445.95433     295.7964 
413010000   4.1301e+08     291.4732    89584.282    6698.5012     0.979621   -948.78554    2308.4441    6820.0728    7769.0727    5506.3581   -179.29362    279.06472    257.31266    291.47341 
413020000   4.1302e+08    292.69613    89584.282    7339.4299     0.979621   -1071.2769    2199.6189    6620.2328    7906.7824    7491.2747   -1111.4006    375.49229    635.37355    292.70089 
413030000   4.1303e+08    289.76772    89584.282    7624.8271     0.979621   -993.94341    2244.2273    6498.1281    8937.3741     7438.979   -791.10332    2.8486198   -197.10373    289.76626 
413040000   4.1304e+08    301.78815    89584.282    6658.5161     0.979621    -934.0458    2438.4539    5219.8273    7947.0676    6808.6534    -558.8458    191.11459   -635.43725    301.78821 
413050000   4.1305e+08     290.9894    89584.282    6620.6996     0.979621   -935.42171    2316.4013    6876.7099    6445.7339    6539.6549   -304.38775   -198.41875   -441.72242    290.98699 
413060000   4.1306e+08     288.5541    89584.282    6720.5535     0.979621      -990.37    2234.2385    6112.6541     7166.113    6882.8933    -1365.482    340.59492   -256.85308    288.55385 
413070000   4.1307e+08    298.64232    89584.282    7658.8052     0.979621   -881.90945    2455.4355    7574.9195    7986.2627    7415.2334   -817.19228    648.11455   -205.89827     298.6395 
413080000   4.1308e+08    296.93986    89584.282    7164.3063     0.979621   -962.69429    2355.6255    6545.9465      8017.38    6929.5924   -1043.4757    906.70609    -327.8682    296.94007 
413090000   4.1309e+08    291.02336    89584.282    6948.0804     0.979621   -1023.8429    2228.3598    6779.5158    7326.1219    6738.6033    749.68435   -485.92984   -568.41396    291.02091 
413100000    4.131e+08    289.05789    89584.282    6740.8098     0.979621   -965.90247    2264.3359    6519.0247    6764.4466    6938.9582   -994.71472    728.76499    775.41795    289.06136 
413110000   4.1311e+08    291.62537    89584.282    7547.3527     0.979621   -892.90988    2366.0202     7389.267     7606.141    7646.6502   -819.32304   -982.53375   -211.39945    291.62594 
413120000   4.1312e+08    296.57417    89584.282    6115.9499     0.979621   -1010.3112     2303.922    5076.9334    5950.9163         7320   -1716.9442    649.73674    1205.6364    296.57554 
413130000   4.1313e+08    291.84916    89584.282    5645.3202     0.979621   -946.16716    2315.2639     4820.942    6387.5123    5727.5062   -1373.6288    858.73678    335.15476    291.85132 
413140000   4.1314e+08     288.5359    89584.282    7140.3958     0.979621    -925.0229    2299.3822    6974.2682    7070.1092    7376.8101    174.93868    448.70987    370.72436    288.53449 
413150000   4.1315e+08    294.17371    89584.282    6581.0078     0.979621   -989.34785    2298.0601    6366.7228    7245.2568    6131.0437   -606.01625    333.52008    566.33458    294.17189 
413160000   4.1316e+08    294.76027    89584.282    6786.2915     0.979621   -1005.9356    2288.0272    5251.6151    8281.6768    6825.5826   -875.68432    558.77481    117.04939    294.75906 
413170000   4.1317e+08     299.0786    89584.282    7343.7952     0.979621   -1004.6468    2337.5736    8102.1976    7628.9968    6300.1911   -1446.1733   -193.78572   -292.63635     299.0804 
413180000   4.1318e+08    290.90775    89584.282    7166.7134     0.979621   -985.16651    2265.7441    7071.3015    7463.5702    6965.2685   -1382.2657    319.68991    19.859417    290.90455 
413190000   4.1319e+08    287.17513    89584.282    6892.6694     0.979621   -981.05767    2228.1407    6218.9149    7025.7075    7433.3858   -533.60519    94.634936    387.61938    287.17433 
413200000    4.132e+08    284.07482    89584.282    7837.2511     0.979621    -1009.215    2165.3372    7856.4883    8314.3416    7340.9234    -1334.575  -0.22337709    -129.8914    284.07154 
413210000   4.1321e+08     294.2233    89584.282    7034.8033     0.979621   -990.07126    2297.8908    6554.7978    7667.0839    6882.5282   -566.33375    280.54716   -314.98908    294.22407 
413220000   4.1322e+08    299.47852    89584.282    6657.0587     0.979621   -920.19697    2426.4925    6282.1893    7884.9843    5804.0026    659.09909    -275.1063   -965.38456    299.47855 
413230000   4.1323e+08    292.52601    89584.282    7714.9757     0.979621    -1008.035    2260.9598     6840.884    9227.8121    7076.2309   -672.28911    356.77337   -152.84213    292.52491 
413240000   4.1324e+08    291.58368    89584.282    7333.1452     0.979621   -881.74157    2376.7226    6279.4871    7960.6483    7759.3003   -613.69306   -624.83061   -340.63541    291.58741 
413250000   4.1325e+08    293.32914    89584.282    6844.6296     0.979621    -944.9364    2333.0334    5230.7687    8304.2417    6998.8784    221.84056    113.17554    158.97156    293.32885 
413260000   4.1326e+08    297.75792    89584.282    6030.4232     0.979621   -1036.2648    2291.1968    5298.7829    6814.6165    5977.8703   -876.22582   -57.601519   -259.39858    297.75812 
413270000   4.1327e+08    292.85194    89584.282    6447.2537     0.979621   -991.82136    2280.8158    5388.0325    7409.3573    6544.3711   -861.27684   -81.458654   -583.73415    292.85026 
413280000   4.1328e+08    291.34067    89584.282    5824.3113     0.979621   -1021.9236    2233.8249    5836.6734    6909.5037    4726.7569   -963.35793    494.57703   -163.62712    291.33886 
413290000   4.1329e+08    292.94444    89584.282     6730.299     0.979621   -1007.2076    2266.4631     6875.371    6744.4996    6571.0265   -592.79627   -250.04093   -502.91152    292.94579 
413300000    4.133e+08    287.17004    89584.282    7251.0925     0.979621   -971.69721    2237.4443    6325.9723    7469.2317    7958.0736   -1733.0028    598.35381   -36.938312    287.17023 
413310000   4.1331e+08    293.40334    89584.282    6433.6475     0.979621   -984.35787    2294.4411    4853.4445     6531.201     7916.297   -969.23544    61.976846    527.10354    293.40235 
413320000   4.1332e+08    290.35372    89584.282    7174.3269     0.979621    -895.2869    2349.4324    6755.7146    8006.4791    6760.7869   -1031.8932    234.54989    159.27556    290.35487 
413330000   4.1333e+08    295.97707    89584.282    6196.0244     0.979621   -1009.0604    2298.5002    5650.5171    7014.7165    5922.8397   -587.79008   -47.271601    438.93192      295.978 
413340000   4.1334e+08    296.28569    89584.282    7175.7169     0.979621   -1005.9019    2305.1075    6305.3104    7676.3206    7545.5199   -583.78844   -233.43158   -360.88703    296.28331 
413350000   4.1335e+08    290.54264    89584.282    7315.9994     0.979621   -1046.3228    2200.5077    8512.6083    7478.7186    5956.6712   -1282.1186   -199.33959   -32.613178    290.54348 
413360000   4.1336e+08    289.85052    89584.282    6104.4035     0.979621    -948.0218    2291.0742    5048.5093    6935.8725    6328.8287   -540.70454    -349.5637    605.46395    289.85253 
413370000   4.1337e+08     292.9048    89584.282    6409.1959     0.979621   -990.06495    2283.1629    5654.9976    7249.9131    6322.6771   -127.98549   -726.24464   -737.18031    292.90613 
413380000   4.1338e+08    303.58267    89584.282    6224.8375     0.979621   -1065.1881    2327.3655    5760.4655    6298.8991    6615.1478   -1059.5818   -350.23773    589.48589    303.58292 
413390000   4.1339e+08    293.38302    89584.282    6786.9962     0.979621   -1015.1743    2263.3976    6197.3758    7019.3972    7144.2156   -724.94887   -54.571096    1.1615747    293.38394 
413400000    4.134e+08    288.18775    89584.282    6201.1115     0.979621   -1030.9536    2189.5609    6763.3936     5564.367    6275.5737   -1900.5051    538.38484    153.34838    288.19042 
413410000   4.1341e+08    296.38113    89584.282    6610.6546     0.979621    -979.7492    2332.3268    7327.8405    6207.7664    6296.3568   -1269.0496    590.86105    181.82685    296.37876 
413420000   4.1342e+08    287.48897    89584.282    7351.1171     0.979621   -1015.4122    2197.2935    6174.5254    8613.1405    7265.6855    -239.2694    877.48685    533.82402    287.49072 
413430000   4.1343e+08    287.83453    89584.282    7628.8571     0.979621   -935.06946    2281.4978    6646.1066    8232.0703    8008.3945    -1390.945    -26.31043     604.1813    287.83843 
413440000   4.1344e+08     292.3482    89584.282    6983.4812     0.979621   -969.31105    2297.6967    7725.1116    6372.8241     6852.508   -1432.3381    260.27139   -138.35081    292.34886 
413450000   4.1345e+08    292.98741    89584.282    6450.8926     0.979621   -941.82009    2332.3309    5692.0594    6882.8347    6777.7836   -1684.5192    -27.82204   -70.368663    292.98877 
413460000   4.1346e+08    295.33393    89584.282    6611.3756     0.979621   -986.57615    2313.7973    6713.2177    7220.1725    5900.7367   -1018.4339    283.68654    249.02402    295.33151 
413470000   4.1347e+08    289.70448    89584.282    5828.4065     0.979621    -955.5331    2281.9309    5516.5156    6248.5809    5720.1229   -1344.4973    325.92853    -173.6072    289.70406 
413480000   4.1348e+08    298.88953    89584.282     6418.416     0.979621   -977.45104    2362.6565     6045.788     7281.086     5928.374   -1352.2869    74.085861   -355.37079    298.88957 
413490000   4.1349e+08    299.42233    89584.282    7518.5995     0.979621   -993.95229    2352.1093    7474.6476    7511.8763    7569.2747    -835.5028    336.75727   -291.59898    299.42687 
413500000    4.135e+08    292.22049    89584.282    7130.7698     0.979621   -1007.6434    2257.9371    6883.0858    7338.3424    7170.8812   -1334.1865    43.677413   -408.41426     292.2202 
413510000   4.1351e+08    294.23786    89584.282    6034.7339     0.979621   -912.96133    2375.1634    5550.9111    6933.3513    5619.9393   -1777.4377   -591.05595   -634.43394    294.24074 
413520000   4.1352e+08    291.57069    89584.282    7583.5976     0.979621   -928.63201    2329.6871    6371.6934    7840.7179    8538.3816   -973.73649   -265.70629    249.97169    291.57001 
413530000   4.1353e+08    294.15505    89584.282    6687.0402     0.979621   -950.18663    2337.0128    6630.8968    6881.1339    6549.0899   -1115.4854   -5.7837948   -1.7961508    294.15075 
413540000   4.1354e+08    301.08203    89584.282    6644.9917     0.979621   -992.19889    2372.4099    6845.3391    6936.1829    6153.4531   -292.75355    1099.7119   -413.69941    301.08076 
413550000   4.1355e+08    296.39065    89584.282    8038.7173     0.979621   -921.98705    2390.1954    7884.7396    8109.7207    8121.6915   -107.61567   -725.70448    235.00626    296.39249 
413560000   4.1356e+08    286.48369    89584.282    7984.2627     0.979621    -1015.142    2186.3295    7661.5286    8410.1561    7881.1033   -725.08476   -610.27465   -130.21211    286.48251 
413570000   4.1357e+08     282.6612    89584.282    7027.4281     0.979621    -1044.294    2114.4609     5964.891    8214.3996    6902.9936   -1461.8003   -413.10702   -843.53599    282.65765 
413580000   4.1358e+08     292.0965    89584.282    7300.8969     0.979621   -1013.9904    2250.2046    7572.9294    7734.1775    6595.5838   -1637.6586     630.3244    226.07848    292.10052 
413590000   4.1359e+08    295.83741    89584.282    8142.8422     0.979621   -930.67075    2375.3291    7612.1101      8345.99    8470.4264   -1016.4128    207.63514    354.15885    295.83658 
413600000    4.136e+08    291.62944    89584.282    7564.3898     0.979621   -965.99078    2292.9848    7193.4485    8218.8286    7280.8925   -1132.3188    392.22894   -385.76708    291.62691 
413610000   4.1361e+08     296.4406    89584.282    6579.0415     0.979621   -905.57585    2407.1647    5602.1269    6681.2343    7453.7632   -725.14939    571.69741    271.21687    296.43788 
413620000   4.1362e+08    288.91253    89584.282    7218.9691     0.979621   -932.20896     2296.405    5974.3825    8234.5804    7447.9445   -677.65808    287.57424    154.13744    288.91356 
413630000   4.1363e+08    284.75104    89584.282    7406.1267     0.979621   -968.42774    2213.6813     6758.619    7430.6656    8029.0956   -785.26816    387.44202   -474.35472    284.74932 
413640000   4.1364e+08    296.24804    89584.282    6906.5462     0.979621   -933.23832    2377.3503    6216.5695    6537.5038    7965.5652   -472.43191    449.68138    -314.9163    296.24986 
413650000   4.1365e+08    289.06428    89584.282    7230.6317     0.979621    -935.8533    2294.4564    6270.1921    7715.5476    7706.1555   -510.29337    59.352475    310.74559      289.066 
413660000   4.1366e+08    294.44966    89584.282     6224.797     0.979621   -987.82137    2302.6703    5492.3681    6741.8855    6440.1373   -1569.4212   -477.53742    489.34155    294.44818 
413670000   4.1367e+08    292.46498    89584.282    6046.5817     0.979621   -953.72322    2314.5896    4308.9325    6649.2471    7181.5655   -1274.0436   -153.84105   -82.102668    292.46697 
413680000   4.1368e+08    285.82344    89584.282    6585.7569     0.979621   -979.91567    2214.1776    5861.1434    6947.5213     6948.606   -892.50162    69.021435   -329.26831    285.82315 
413690000   4.1369e+08    295.06008    89584.282    7074.3248     0.979621   -984.92518     2312.388    6944.3096    7054.8308     7223.834   -687.96515    1307.1062    511.72116    295.06094 
413700000    4.137e+08    289.38293    89584.282    6435.1772     0.979621   -917.52785    2316.3429    5867.2489    7243.2977    6194.9849   -72.170499    66.048554   -1219.6735    289.38223 
413710000   4.1371e+08    290.03767    89584.282    6697.1771     0.979621   -988.54679    2252.6407     6608.422    8014.3632     5468.746    400.50471   -350.89823   -1278.4518    290.03751 
413720000   4.1372e+08     293.1737    89584.282    7126.5764     0.979621   -969.84698    2306.3858    7224.2966    7339.9199    6815.5126    433.18826    -703.4034   -723.95938    293.17494 
413730000   4.1373e+08     295.0359    89584.282    6131.8953     0.979621   -1004.0889     2292.954    5728.4776    5998.8237    6668.3847   -1314.7882   -926.31224    102.00411    295.03565 
413740000   4.1374e+08    294.21036    89584.282    6750.0866     0.979621   -906.06674    2381.7507    5397.9494    7884.6584    6967.6519   -591.69768   -64.532988   -717.67206    294.21265 
413750000   4.1375e+08    293.70792    89584.282    7485.9898     0.979621   -929.31694    2352.8858    6606.8931    8049.5879    7801.4884    198.44188   -282.57234    273.39289    293.70848 
413760000   4.1376e+08    294.73003    89584.282    7796.3719     0.979621   -977.31747    2316.3074     8339.094    7490.0465    7559.9751   -591.46745   -1429.3106    345.52237    294.72932 
413770000   4.1377e+08    298.97373    89584.282    7458.7671     0.979621   -1065.2974    2275.7511    7276.1619     7346.481    7753.6583    594.89352   -31.958194   -261.18569     298.9738 
413780000   4.1378e+08    300.74179    89584.282    7172.8469     0.979621   -876.89141    2483.9152     5591.737    7509.4209    8417.3827   -310.07857    -164.4458   -242.66069    300.74195 
413790000   4.1379e+08    288.07792    89584.282    6668.6814     0.979621   -968.93652    2250.3506    6352.8252    6602.0928    7051.1261   -46.403107   -116.01142    374.19015      288.077 
413800000    4.138e+08    292.85702    89584.282    7363.8244     0.979621   -1007.1467    2265.5472    7411.5164     7810.826    6869.1309   -173.88631   -225.24639   -11.823123     292.8562 
413810000   4.1381e+08    288.53476    89584.282    7271.3979     0.979621   -969.21322    2255.1791    7460.1547    7483.2726    6870.7664   -988.01647    284.38979   -410.53098      288.533 
413820000   4.1382e+08    286.65674    89584.282    6795.4658     0.979621   -1007.0449    2196.3604    7316.6287    6227.3305    6842.4382   -431.14897    38.826864    782.45969    286.65873 
413830000   4.1383e+08    295.71487    89584.282    6714.2773     0.979621   -1009.2888    2295.3417    6320.3354    7417.4494    6405.0469   -38.696304   -640.89747    1145.8347    295.71246 
413840000   4.1384e+08    291.57532    89584.282    7015.3842     0.979621   -1126.3642    2132.0066    7260.6758    6868.5868    6916.8901    178.35722    853.08238    90.929674    291.57506 
413850000   4.1385e+08    296.34285    89584.282    7528.9553     0.979621    -964.8236    2346.8246    7628.3613    7580.8995    7377.6051   -303.34399    -346.3492   -40.139931    296.34226 
413860000   4.1386e+08    297.79111    89584.282    6704.3979     0.979621   -988.62384    2339.2087    6006.5659    7166.5167    6940.1112   -1331.5519   -121.77851   -103.47256    297.79085 
413870000   4.1387e+08    291.71931    89584.282    6449.4127     0.979621   -1053.5317    2206.4481    6269.3888    7402.9124    5675.9369    -984.2485   -85.033609    458.95868    291.71625 
413880000   4.1388e+08    287.55646    89584.282    6581.1038     0.979621   -927.46977      2285.99    6079.8363    6896.8276    6766.6474   -203.12893   -325.73336    22.217105    287.55614 
413890000   4.1389e+08    297.92184    89584.282    6979.3291     0.979621   -1028.5902    2300.7033    6865.9708    7478.4379    6593.5786   -149.76451   -230.63608   -242.10313    297.92248 
413900000    4.139e+08    298.52767    89584.282    6336.4026     0.979621   -942.37495    2393.6888    6282.6607    6852.1941     5874.353   -970.08988   -445.75744    206.02331    298.52664 
413910000   4.1391e+08    291.48706    89584.282    7841.1884     0.979621   -968.64923    2288.7353    7083.5886    8863.5078    7576.4689    70.326554   -251.70015    839.93962    291.48544 
413920000   4.1392e+08    293.59985    89584.282     7676.823     0.979621   -996.66208     2284.333    7453.2738    7356.8821    8220.3132   -910.26076   -123.58324   -889.26076    293.59594 
413930000   4.1393e+08    298.64549    89584.282    6737.3487     0.979621   -1009.5491    2327.8313    5312.1806    7394.5285    7505.3372   -205.33603   -226.07312    60.806931    298.64592 
413940000   4.1394e+08     291.5448    89584.282    6633.0625     0.979621   -981.20147    2276.8282    5714.4701    6869.2923    7315.4251    247.14186   -322.19112    146.22262    291.54332 
413950000   4.1395e+08     296.5879    89584.282    6927.7721     0.979621   -957.82038    2356.5663    6967.0418    7330.2604    6486.0141   -1298.3513     244.8986    152.74814    296.59136 
413960000   4.1396e+08     293.2185    89584.282    6988.5454     0.979621   -1059.3527    2217.3807    7269.8949     7313.298    6382.4434    204.56046   -682.86898    135.92684    293.22049 
413970000   4.1397e+08    290.93034    89584.282    6925.4191     0.979621   -1021.9479    2229.2151    6056.6601    7355.2185    7364.3787   -906.49353   -101.42642    544.33687    290.92683 
413980000   4.1398e+08    287.36496    89584.282    6715.8361     0.979621   -964.49566    2246.8241    5619.5577    6877.5812    7650.3693    -473.5509   -138.60042    626.65699    287.36182 
413990000   4.1399e+08    287.76481    89584.282    6919.4071     0.979621   -1066.9597    2148.8284    5547.5303    7380.4061    7830.2848     -1466.85    519.52334   -215.11654    287.76448 
414000000     4.14e+08    292.30792    89584.282    6430.6817     0.979621   -996.34194    2270.2157    4724.0832    7224.6458    7343.3162   -657.45482      356.708    707.92535    292.30912 
414010000   4.1401e+08    292.11121    89584.282    6696.7238     0.979621   -1098.1216    2166.2378      6019.12    7571.7917    6499.2596   -371.92769   -617.42198    83.244819    292.11305 
414020000   4.1402e+08    296.66742    89584.282    6926.2517     0.979621   -962.27958    2352.9957    6124.3567     7378.875    7275.5234   -212.68467   -633.12039   -753.46311    296.66912 
414030000   4.1403e+08     293.1455    89584.282    6760.2333     0.979621   -1046.9528    2228.9649    6969.0552     6996.314    6315.3306   -500.26232    11.182081    -291.9481    293.14617 
414040000   4.1404e+08    291.17771    89584.282    6457.9292     0.979621   -1062.2006    2191.7269    6113.1971     7063.277    6197.3136   -1116.6949    127.73054    907.30084    291.17809 
414050000   4.1405e+08    293.71955    89584.282    8087.1741     0.979621   -936.74784    2345.5849    7400.1927    7470.2615    9391.0681   -1192.5546   -344.53986    478.06289    293.71918 
414060000   4.1406e+08    288.02854    89584.282    7202.2089     0.979621   -1051.0461    2167.6892    6391.8902    7901.3292    7313.4075   -335.01821      61.2188    228.97795      288.029 
414070000   4.1407e+08    291.18358    89584.282    6522.1303     0.979621   -995.86166    2258.1314    5825.0621    6996.8813    6744.4474    16.931203    541.83351    143.07057    291.18268 
414080000   4.1408e+08    291.72492    89584.282    6834.2913     0.979621   -974.50375    2285.5389    6639.6694    6944.9038    6918.3009   -1860.1226    107.98112    30.828076     291.7254 
414090000   4.1409e+08    296.46585    89584.282    7248.1869     0.979621   -925.95048    2387.0722    6359.8665    8137.8788    7246.8155    -315.6277   0.68743807   -642.01123    296.46841 
[...]
609080000   6.0908e+08    293.45696    89584.282    7142.2119     0.979621   -1003.1419    2276.2563    6305.6865    7637.2612    7483.6881   -770.05007   -26.540114    45.947262     293.4581 
609090000   6.0909e+08    291.68411    89584.282    6541.5388     0.979621   -1108.0819    2151.5046    6575.8868    6736.9187     6311.811   -112.52363    411.45439    155.52563    291.68339 
609100000    6.091e+08    292.37593    89584.282    7612.3826     0.979621    -1043.528    2223.7897     6605.587    8468.3795    7763.1815   -1355.1467   -248.14487   -1.9367795    292.37757 
609110000   6.0911e+08    293.61211    89584.282    5730.9885     0.979621    -1102.042      2179.09    5422.9164     6174.352    5595.6971   -1088.9026    93.087795   -1001.0597    293.61249 
609120000   6.0912e+08    291.57845    89584.282    6848.6755     0.979621    -1023.827    2234.5788    6102.6714    7733.0129    6710.3422   -1609.9562    91.815738   -594.03749    291.57966 
609130000   6.0913e+08    294.74273    89584.282    6443.8402     0.979621   -1108.4406    2185.3262    6610.7941    6400.1493     6320.577    -994.0787   -104.75605    116.24047    294.73915 
609140000   6.0914e+08    294.46624    89584.282    7096.7882     0.979621   -1003.6685    2287.0085     6951.374    7612.5749    6726.4156   -546.22582    789.97131    466.20482    294.46809 
609150000   6.0915e+08    286.44315    89584.282    5957.3875     0.979621   -968.01775    2233.0007    5412.9765    5952.4919    6506.6941    150.06701    476.63212    118.81481     286.4433 
609160000   6.0916e+08    294.90464    89584.282    5927.2172     0.979621   -1046.4965    2249.0796    5172.3326    6034.3324    6574.9867   -301.17679   -694.20128    30.489862    294.90327 
609170000   6.0917e+08    294.10543    89584.282    6857.1912     0.979621   -1049.1354    2237.5094    5510.7157    7776.8153    7284.0426   -978.58889    -187.2359   -483.22272    294.10491 
609180000   6.0918e+08     293.8185    89584.282    6210.1794     0.979621   -944.90279    2338.5356    5129.9595    6734.3999    6766.1787   -1820.8785    156.32705     183.3344     293.8189 
609190000   6.0919e+08    291.61826    89584.282     6742.902     0.979621   -921.12437    2337.7263    4780.5203    8352.1534    7096.0323   -1510.1271    496.19323   -974.89333    291.61838 
609200000    6.092e+08    297.49489    89584.282    6427.3182     0.979621   -1007.4137    2317.1086    5494.7888    7480.0952    6307.0707   -488.69531    48.722615   -288.48973    297.49503 
609210000   6.0921e+08     290.2551    89584.282    5597.7466     0.979621   -1017.8686    2225.7486    3936.0806    6848.5128    6008.6465   -937.75111    -67.63245   -169.09092    290.25443 
609220000   6.0922e+08     289.6882    89584.282    7163.0152     0.979621   -1121.0637    2116.2184    6822.8087    7222.9163    7443.3208   -286.90282   -24.967608    -724.3123    289.68808 
609230000   6.0923e+08    295.06746    89584.282    7129.4355     0.979621    -993.4813    2303.9143    6362.0743    7584.9085    7441.3236   -1628.1564   -305.92291    477.28022    295.07012 
609240000   6.0924e+08    293.50854    89584.282    6356.3281     0.979621   -1041.1351    2238.8395    4924.3932    6552.8419    7591.7491    -851.6438   -331.29825   -182.42793    293.51107 
609250000   6.0925e+08    299.44365    89584.282    6662.4348     0.979621   -1120.2072    2226.0927    5202.0371    7596.4196    7188.8476   -199.88767    155.79828    338.11938    299.44227 
609260000   6.0926e+08    295.43364    89584.282    7422.6097     0.979621   -1011.3325    2290.1552    7041.2775    7665.1763    7561.3753   -937.79434    811.77021    341.48132    295.43727 
609270000   6.0927e+08    295.43451    89584.282    6605.6158     0.979621   -1054.1929    2247.3045    6769.9391    6067.7598    6979.1484   -535.66227    283.00772    305.84846    295.43585 
609280000   6.0928e+08    289.56496    89584.282    7077.6233     0.979621   -1088.7137    2147.1912    6718.3419    7120.7934    7393.7346   -1116.1275    277.48705    63.108693     289.5639 
609290000   6.0929e+08    287.42141    89584.282    7174.3048     0.979621   -920.93571    2291.0149    6781.0347    8133.7021    6608.1778   -440.24288    367.34526    252.13686    287.41961 
609300000    6.093e+08    285.79445    89584.282    7038.1808     0.979621   -1021.6769    2172.0924    6649.5154    7554.2826    6910.7444   -507.00503   -179.96193    313.61433    285.79694 
609310000   6.0931e+08     291.8045    89584.282    6598.1375     0.979621   -954.05925    2306.8727    6213.7657    6790.4266    6790.2202   -393.82675    28.380933   -250.70026    291.80174 
609320000   6.0932e+08     294.4572    89584.282    7291.2897     0.979621   -995.46839    2295.1076    7036.7896    7165.1276    7671.9517   -266.02487   -13.819984   -57.846958    294.45715 
609330000   6.0933e+08     296.6694    89584.282    5497.2857     0.979621   -1136.1762    2179.1212    4217.2456    6584.8097    5689.8016   -747.88893     601.9591   -308.16329    296.67296 
609340000   6.0934e+08    289.91559    89584.282    5810.6836     0.979621   -966.99167    2272.8316    5141.1427    6374.9636    5915.9444   -1272.4001   -636.84775   -335.51644    289.91997 
609350000   6.0935e+08    300.05216    89584.282    6928.0567     0.979621   -1040.1593    2312.9407     5872.849    8064.5637    6846.7573   -594.48217    348.24163   -554.04005    300.05435 
609360000   6.0936e+08    295.41211    89584.282    7805.6373     0.979621   -1028.0117    2273.2354    7873.8576    7692.1171    7850.9371   -279.39992   -32.997908    598.97788    295.41311 
609370000   6.0937e+08    293.00968    89584.282    7328.6667     0.979621   -1053.8983    2220.5015    6620.6394    8002.5406    7362.8202   -199.51093   -9.4833892   -652.64222    293.01055 
609380000   6.0938e+08    287.60699    89584.282    7365.0333     0.979621   -1034.2199    2179.8047    6656.9188    7886.6331    7551.5479   -1016.2617   -107.35914   -177.82696     287.6091 
609390000   6.0939e+08    295.03572    89584.282     7017.893     0.979621   -1063.2691    2233.7719    6121.3446    7964.7217    6967.6126   -225.44052   -388.32853    789.99588    295.03596 
609400000    6.094e+08    289.75868    89584.282    7399.5499     0.979621   -1066.6671    2171.4026    6315.5706    7856.3264    8026.7527   -374.95949   -446.27533   -415.96652     289.7562 
609410000   6.0941e+08    287.77346    89584.282    6987.9478     0.979621   -1071.1687    2144.7161    6395.2656    7443.9251    7124.6527   -1024.2675   -165.86902   -295.20046    287.77393 
609420000   6.0942e+08    290.34416    89584.282    6646.7296     0.979621    -994.4181    2250.1944    5678.3314    6946.3923    7315.4651    -780.3322   -26.977545   -547.61951    290.34767 
609430000   6.0943e+08    293.93142    89584.282    7369.4517     0.979621   -977.02146    2307.6789    6891.4853    7886.1806    7330.6893   -216.14528    229.97583   -557.49774    293.93248 
609440000   6.0944e+08    282.97057    89584.282    6379.6588     0.979621   -927.09963    2235.1125    6001.0904    7140.8268    5997.0593   -605.09087    358.25046   -1239.6352     282.9719 
609450000   6.0945e+08    297.75409    89584.282    6541.2773     0.979621   -968.87099    2358.5479    6369.5399     6947.395    6306.8971   -1195.3642   -356.75888    993.88794    297.75657 
609460000   6.0946e+08    291.73089    89584.282    7050.6415     0.979621   -1065.0792    2195.0301    7332.7788    7406.2851    6412.8605   -1036.6425    656.47075   -430.88507    291.73357 
609470000   6.0947e+08    290.23714    89584.282     6815.366     0.979621   -1024.8049    2218.6117    6967.4722    7460.1154    6018.5104   -15.885064    -98.27279   -480.86267    290.23896 
609480000   6.0948e+08    293.21102    89584.282    6464.9765     0.979621   -1051.3928    2225.2571    5606.3845    7667.4881    6121.0569   -405.15627    560.77299    135.54612    293.21244 
609490000   6.0949e+08    295.29497    89584.282    6443.7981     0.979621   -974.20158    2325.7365    6164.0032    7102.5229    6064.8681   -810.53218    232.82995    504.52297    295.29674 
609500000    6.095e+08    291.15575    89584.282    7274.9254     0.979621   -1111.5306    2142.1515    6547.8963    7612.7271     7664.153    92.524463   -135.71935   -592.65922    291.15779 
609510000   6.0951e+08    288.70254    89584.282     7153.939     0.979621   -972.01957    2254.2477    6813.9035    8158.2541    6489.6593   -530.97175    298.24495    1132.7293    288.70509 
609520000   6.0952e+08    289.08467    89584.282    6501.0414     0.979621   -1050.5819    2179.9558    6521.5496    6422.1466    6559.4279   -1357.5964    166.78739    670.15344    289.08611 
609530000   6.0953e+08    296.32872    89584.282    6504.9153     0.979621    -972.4845    2339.0059    5406.0754    7993.3558    6115.3147    6.4100572   -240.39326    282.43551    296.33163 
609540000   6.0954e+08    297.36834    89584.282    7163.8623     0.979621   -1020.8258    2302.2823    7481.7089    7257.9633    6751.9146    265.52151   -865.73448   -403.05954    297.36854 
609550000   6.0955e+08    291.63798    89584.282     6552.069     0.979621   -1057.0513    2202.0197    6326.7495    7042.3575       6287.1   -314.78127    441.91976    609.42842    291.63678 
609560000   6.0956e+08    294.71108    89584.282    7261.7822     0.979621   -972.96189    2320.4512    7640.4859    8058.5237    6086.3369   -446.10722   -518.56346    309.94368    294.71266 
609570000   6.0957e+08    292.74741    89584.282    6760.7104     0.979621   -1031.9688    2239.5002    6263.1414    7897.7336    6121.2563   -1319.5879    -529.3891   -198.50506    292.74469 
609580000   6.0958e+08    296.88001    89584.282    6836.5264     0.979621    -1014.212     2303.439    5859.4447    7427.6772    7222.4574   -1145.1446   -174.22659   -746.59214     296.8799 
609590000   6.0959e+08    296.75027    89584.282    5606.9448     0.979621    -1038.177    2278.0241    4524.5862    6243.8546    6052.3935    71.923276    400.18975    42.552728    296.75145 
609600000    6.096e+08    289.78213    89584.282    6962.8856     0.979621    -1084.857    2153.4748    6740.6033    7500.4575    6647.5958   -401.85014   -141.32079    144.93119    289.78475 
609610000   6.0961e+08    294.52922    89584.282    6218.1588     0.979621    -1009.161    2282.2198     6484.661    6879.0875    5290.7281   -352.90804     470.6079   -356.10371    294.52861 
609620000   6.0962e+08    298.40676    89584.282    7339.4013     0.979621   -1021.2107    2313.5018    7669.7103    8172.9084    6175.5852   -716.87745   -213.58369    192.05113    298.40958 
609630000   6.0963e+08    298.46526    89584.282    6992.7512     0.979621   -1062.7812    2272.5851    6737.4948    7181.2047    7059.5542   -1196.7584    304.35508    675.14027    298.46409 
609640000   6.0964e+08    290.06566    89584.282     7727.636     0.979621   -1066.4033    2175.0969    7676.1388    8213.1706    7293.5986   -245.89814    62.508019   -120.01743    290.06393 
609650000   6.0965e+08    294.50241    89584.282    7339.3931     0.979621   -1036.6635    2254.4177    7539.0437     8438.644    6040.4917    148.63141   -303.87649   -439.28026     294.5034 
609660000   6.0966e+08    291.27003    89584.282    6607.3348     0.979621   -1078.8432     2176.116    6153.7909     7463.134    6205.0794   -1381.2419    294.70142   -619.29183    291.27007 
609670000   6.0967e+08    285.15913    89584.282    6178.4934     0.979621   -1019.4784    2167.1911    5281.6453    6756.7275    6497.1074    -1525.019    439.49255   -21.934047     285.1584 
609680000   6.0968e+08    298.41543    89584.282    6947.5478     0.979621   -1021.3636    2313.4457    7151.1568    7489.9809    6201.5056   -1041.1998   -282.09991    -63.38155    298.41618 
609690000   6.0969e+08    296.82167    89584.282    6235.1261     0.979621   -1033.2672    2283.7319     5263.664    6347.2917    7094.4226   -1922.1883    361.26997   -512.40836    296.81851 
609700000    6.097e+08     290.4479    89584.282    7013.5179     0.979621   -1113.3512    2132.4207    6593.4528    7072.2588    7374.8423   -595.95434   -808.25766   -227.23678    290.45023 
609710000   6.0971e+08    292.59683    89584.282    7236.0697     0.979621   -1090.9613     2178.825    6320.6212    7476.6587    7910.9293   -953.96584    272.11935   -883.79903    292.59538 
609720000   6.0972e+08     296.9211    89584.282    6866.4957     0.979621   -1019.9242     2298.186    6349.7001    6435.2278    7814.5593   -1603.5244   -859.48106   -494.47504    296.92073 
609730000   6.0973e+08    285.56964    89584.282    6331.9802     0.979621   -1087.3401     2103.917    5639.8713    6232.5462    7123.5231   -810.34317   -39.136292   -1093.5062    285.56772 
609740000   6.0974e+08    291.86281    89584.282    6908.5462     0.979621   -1037.0077    2224.5758    6614.1576     6939.226    7172.2548   -614.13087   -517.62566   -605.09979    291.86347 
609750000   6.0975e+08    301.07762    89584.282    5749.3359     0.979621   -1046.9543    2317.6052    4307.6188    6389.0447     6551.344   -1022.4693   -108.85237    355.25339    301.07763 
609760000   6.0976e+08    291.54216    89584.282    6770.4042     0.979621    -1010.086    2247.9141    5522.8221    8272.7932    6515.5972   -41.577668   -59.406888    605.87683    291.53977 
609770000   6.0977e+08     297.1356    89584.282    7103.5396     0.979621   -1046.9861    2273.5212    7196.1402    7165.6001    6948.8784   -1508.3548    516.54843   -389.94449    297.13221 
609780000   6.0978e+08     299.4119    89584.282    6013.6119     0.979621   -966.92739    2379.0176    5857.9184    6053.0632     6129.854   -1255.3654    231.93141   -35.739647    299.41289 
609790000   6.0979e+08    295.50563    89584.282    7016.4276     0.979621   -1161.8899    2140.4024    6198.6627    6964.0879    7886.5321   -1196.9509    348.49091   -639.84148     295.5049 
609800000    6.098e+08    292.19942    89584.282     6447.131     0.979621   -1123.2554    2142.0897    4726.1858    7247.0446    7368.1625   -904.06597    16.983498    68.271843    292.19928 
609810000   6.0981e+08    295.48898    89584.282      6602.87     0.979621   -1068.4211    2233.6851    5725.7939    7345.4047    6737.4115   -1532.1785    657.21358    1067.2469    295.48745 
609820000   6.0982e+08    287.71892    89584.282    6846.3229     0.979621   -1038.1757    2177.0997    6702.8264    6693.6252    7142.5169   -1243.2582   -398.12827    204.50929    287.71808 
609830000   6.0983e+08    296.53411    89584.282    6040.8308     0.979621   -1095.0308    2218.7547    5638.1679    6772.3487    5711.9757   -1219.1341   -144.27859   -331.90921    296.53199 
609840000   6.0984e+08    290.17472    89584.282    6539.7772     0.979621   -1025.6064    2217.1127    6147.4733    6866.2152    6605.6432   -903.86526    102.13146   -803.54206    290.17416 
609850000   6.0985e+08    290.35667    89584.282    6443.5258     0.979621   -1051.5068    2193.2454    5983.4392    7432.9067    5914.2314   -48.639859     551.0724   -278.98655    290.35471 
609860000   6.0986e+08    295.93131    89584.282    7460.4619     0.979621   -1067.9583    2239.0909    6455.6388    8403.1076    7522.6394   -1202.6196    496.80496   -182.08841    295.93215 
609870000   6.0987e+08     297.9666    89584.282    6897.8953     0.979621   -1032.9576    2296.8361    5590.0106    7683.1634    7420.5118   -258.76374      -17.862   -401.08693    297.96978 
609880000   6.0988e+08    296.02003    89584.282    6200.8011     0.979621    -1039.516    2268.5247     5151.578    6406.7066    7044.1188   -445.24159    223.40467    376.60375    296.01816 
609890000   6.0989e+08    293.92959    89584.282    7342.4767     0.979621   -968.09659    2316.5832    7578.1387    7609.9497    6839.3417   -1367.6018   -73.530185    32.666085    293.93037 
609900000    6.099e+08    296.70184    89584.282    6384.9865     0.979621    -1057.881    2257.7789     5344.648    7036.6445     6773.667   -597.17948    350.08753    1236.5838      296.703 
609910000   6.0991e+08    283.82916    89584.282    7162.2077     0.979621   -1043.9752    2127.8318    6238.9947    8208.1725    7039.4559   -501.64098    92.954239    161.02821    283.82967 
609920000   6.0992e+08    294.48902    89584.282    6929.5935     0.979621   -1036.9432    2253.9883    5198.3121    8346.4212    7244.0473   -1870.2285   -92.168186   -1146.1995    294.49124 
609930000   6.0993e+08    295.35236    89584.282    7761.9427     0.979621   -1065.9692    2234.6103    6822.0237    7582.9308    8880.8737   -1097.3929    668.05029    428.96472    295.35304 
609940000   6.0994e+08    292.04285    89584.282    6510.0454     0.979621   -1135.6883    2127.9072    5678.1563     7015.039     6836.941   -722.81142   -1019.7973   -767.19054     292.0432 
609950000   6.0995e+08    293.28885    89584.282     7510.259     0.979621   -1042.4164    2235.1032    7184.1358    7420.5028    7926.1384   -559.07266   -438.63525    229.96022    293.28921 
609960000   6.0996e+08    292.14449    89584.282    7158.1961     0.979621   -1044.5369    2220.1945    6174.1357    7511.9168    7788.5357   -515.10849    17.009501    -201.3837     292.1456 
609970000   6.0997e+08    290.88456    89584.282    7639.9485     0.979621   -1025.2037    2225.4478    7148.3234    7740.9688    8030.5533   -1478.8803   -518.95346    1032.7685    290.88096 
609980000   6.0998e+08    294.58894    89584.282    7313.4992     0.979621   -919.11052    2372.9377    6990.4434    7804.6073     7145.447   -727.09829   -240.34694    -500.3457    294.58845 
609990000   6.0999e+08    298.32418    89584.282    6586.6632     0.979621   -1060.2336    2273.5561    6253.0505    7278.7121     6228.227    159.37936    887.37681    90.099595    298.32947 
610000000      6.1e+08    297.03879    89584.282    6780.4651     0.979621   -1040.3724     2279.053    6763.7721     7016.758    6560.8652   -963.60898   -774.38731   -976.20286    297.03721 
Loop time of 31159.5 on 48 procs for 100000000 steps with 3750 atoms

Pair  time (%) = 11559.1 (37.0966)
Bond  time (%) = 2180.2 (6.99689)
Neigh time (%) = 5979.56 (19.1902)
Comm  time (%) = 8071.98 (25.9053)
Outpt time (%) = 0.949358 (0.00304677)
Other time (%) = 3367.71 (10.808)

Nlocal:    78.125 ave 86 max 66 min
Histogram: 1 0 2 3 7 8 8 8 8 3
Nghost:    1421.31 ave 1443 max 1400 min
Histogram: 1 5 2 10 9 5 7 5 1 3
Neighs:    7238.19 ave 8131 Generated thermo.dat
Done!
stress
average  894.372
square average  806139
number of blocks  600
variance  3.22431533197359591006
pxx
average  6215.34
square average  3.86525*10^07
number of blocks  600
variance  6.06199697569483560801
pyy
average  7235.9
square average  5.23685*10^07
number of blocks  600
variance  4.13343884273938020323
pzz
average  6932.81
square average  4.80732*10^07
number of blocks  600
variance  3.94662385252678131803
xx
average  2182.05
square average  4.76134*10^06
number of blocks  600
variance  .06058740243097844948
yy
average  2183.65
square average  4.76832*10^06
number of blocks  600
variance  .11047247017545442149
zz
average  2182.9
square average  4.76507*10^06
number of blocks  600
variance  .17122110461817102370
xx
average  4545.19
square average  2.06808*10^07
number of blocks  600
variance  6.06188418178154681686
yy
average  5564.52
square average  3.09741*10^07
number of blocks  600
variance  4.12657436622678593403
zz
average  5262
square average  2.7698*10^07
number of blocks  600
variance  3.94883949196891685124
pressure, stress.strain, ktensor, virial are all concatenated
averages computed will all accumulated data until now
max 6152 min
Histogram: 1 0 5 6 8 9 6 8 3 2

Total # of neighbors = 347433
Ave neighs/atom = 92.6488
Ave special neighs/atom = 6.26667
Neighbor list builds = 11146746
Dangerous builds = 0
System init for write_restart ...

real	1038m50.990s
user	0m0.065s
sys	0m0.317s
