LAMMPS (10 Feb 2015)
Read molecule SQL:
  30 atoms with 4 types
  29 bonds with 1 types
  34 angles with 1 types
  31 dihedrals with 2 types
  6 impropers with 1 types
Reading restart file ...
  restart file = 10 Feb 2015, LAMMPS = 10 Feb 2015
WARNING: Restart file used different # of processors (../read_restart.cpp:705)
  triclinic box = (112.628 112.628 112.628) to (157.372 157.372 157.372) with tilt (0 0 0)
  4 by 3 by 4 MPI processor grid
  3750 atoms
  3625 bonds
  4250 angles
  3875 dihedrals
  750 impropers
250 atoms in group endatoms
60 atoms in group samplechains
WARNING: New thermo_style command, previous thermo_modify settings will be lost (../output.cpp:665)
Neighbor list info ...
  1 neighbor list requests
  update every 1 steps, delay 0 steps, check yes
  master list distance cutoff = 10.3
Setting up run ...
Memory usage per processor = 2.18491 Mbytes
Step Time Temp Volume Press Density PotEng TotEng Pxx Pyy Pzz Pxy Pyz Pxz myT 
       0            0    295.73566    89584.282    6654.2445     0.979621   -1403.7239    1901.1389    6236.6421    7359.1945    6366.8967    450.08597   -395.46653   -1087.9614    295.73566 
    1000         1000    290.26603    89584.282    5791.8076     0.979621   -1457.3749    1786.3645    6653.2695    5169.2247    5552.9287   -680.56473   -455.40007   -631.29433    290.26603 
    2000         2000    292.15515    89584.282    6052.0313     0.979621     -1359.24    1905.6104    5803.4997    6399.8098    5952.7845   -408.95778   -314.11291   -707.36893    292.15515 
    3000         3000    293.05698    89584.282     5593.488     0.979621    -1424.124    1850.8045    6874.0648    4366.3741    5540.0251   -1154.6654    1180.8819    463.06398    293.05698 
    4000         4000    290.70966    89584.282    5813.7831     0.979621   -1338.3421    1910.3549    5670.0226    7146.7383    4624.5885   -111.71905   -394.82084    106.91573    290.70966 
    5000         5000    287.02298    89584.282    5888.8794     0.979621   -1403.3867    1804.1115      7059.88    4419.3613    6187.3969    931.24202     806.6664    160.19229    287.02298 
    6000         6000     297.7408    89584.282     5884.747     0.979621   -1421.8345    1905.4359    4724.7894    6676.0581    6253.3937   -441.07633    470.85932   -540.42516     297.7408 
    7000         7000    295.08408    89584.282    6730.2831     0.979621   -1438.8905    1858.6908    7342.0725      6759.67    6089.1067   -556.47309    162.39966   -547.11323    295.08408 
    8000         8000    290.48466    89584.282    6388.6261     0.979621   -1401.7903    1844.3922    6648.4147    6331.2728    6186.1908   -559.56605    178.06921   -41.596496    290.48466 
    9000         9000    297.23514    89584.282    6430.3319     0.979621   -1363.6292    1957.9904    5959.2844    6137.6514    7194.0599    519.19618   -922.26742   -264.47266    297.23514 
   10000        10000    291.78975    89584.282    6929.2704     0.979621   -1383.1817    1877.5854    6223.7427     6936.945    7627.1234   -57.256545    225.04174    569.20542    291.78975 
   11000        11000    290.14021    89584.282     6093.608     0.979621   -1412.8705    1829.4629    5760.5649    5858.2985    6661.9605   -352.74761    562.29886   -295.10164    290.14021 
   12000        12000    298.78372    89584.282    5965.7469     0.979621   -1423.8975    1915.0276    5926.5722    4903.5456     7067.123   -1036.1001   -633.58332    715.93114    298.78372 
   13000        13000     293.6456    89584.282    5972.0061     0.979621   -1412.0691    1869.4371    6314.6497    6659.4657    4941.9029    600.27441    864.38599    542.76323     293.6456 
   14000        14000     297.9121    89584.282    7334.2912     0.979621   -1478.2778    1850.9069    7368.7786     7347.405      7286.69   -1600.0868    219.00163    122.87854     297.9121 
   15000        15000    299.02131    89584.282    6129.4134     0.979621   -1361.9909    1979.5892    5808.6631    5742.3476    6837.2295   -950.94759    597.65072   -144.47284    299.02131 
   16000        16000    288.98533    89584.282    5571.9939     0.979621    -1432.401    1797.0265    5527.3611     5167.477    6021.1438   -334.86867   -191.39623    18.388582    288.98533 
   17000        17000    290.14101    89584.282    5642.7394     0.979621   -1398.1869    1844.1554    5701.8006    4612.2858    6614.1317   -804.94817   -151.75631    277.10174    290.14101 
   18000        18000    291.51454    89584.282    6132.8507     0.979621   -1348.5228    1909.1688     6154.385    6594.0806    5650.0866   -1034.3107   -359.65549    113.56431    291.51454 
   19000        19000    294.23853    89584.282    6353.0641     0.979621   -1468.6937    1819.4385    7119.6086     6173.997    5765.5866    216.34954    355.54955    137.56434    294.23853 
   20000        20000    294.15428    89584.282    6346.3704     0.979621   -1372.1144    1915.0764    5881.0043    6574.6942    6583.4128    -1131.485     310.5986   -148.09064    294.15428 
   21000        21000    293.16468    89584.282    7191.8499     0.979621   -1332.9594    1943.1726    7438.5503    6113.9638    8023.0357   -630.22309   -541.64084   -296.93408    293.16468 
   22000        22000    285.29254    89584.282    5596.4719     0.979621   -1343.2046    1844.9557    6174.7833    5325.2439    5289.3884    108.87419    501.37635    247.61741    285.29254 
   23000        23000    297.50273    89584.282    6175.1869     0.979621   -1357.1396    1967.4703    6028.1982    5784.4857    6712.8768   -1026.2281   -205.20114    515.89993    297.50273 
   24000        24000     290.0037    89584.282     6727.245     0.979621   -1367.9974    1872.8105    7230.1174     5877.701    7073.9167   -493.85753   0.62842888   -522.58044     290.0037 
   25000        25000     295.0801    89584.282    6345.2101     0.979621   -1363.2531    1934.2839     6245.307    7128.5252     5661.798   -481.60017    108.45107   -169.51249     295.0801 
   26000        26000    288.47578    89584.282    6906.5289     0.979621   -1393.8408    1829.8925    7384.0641    6422.4826    6913.0401   -393.36344    213.30156   -245.84479    288.47578 
   27000        27000    295.46067    89584.282    6263.2673     0.979621   -1339.1567    1962.6331    4831.7712     6782.946    7175.0848   -1267.6832    377.14398    779.89796    295.46067 
   28000        28000    292.27707    89584.282    6187.3161     0.979621   -1394.3594    1871.8535    5817.0899    6517.9072    6226.9512   -234.66237   -396.84462    106.68447    292.27707 
   29000        29000    292.47978    89584.282    6534.5315     0.979621   -1387.7064    1880.7718    7208.9129    5672.5763    6722.1053   -1520.4261   -146.82492   -39.353174    292.47978 
   30000        30000     292.4402    89584.282    6340.0382     0.979621   -1443.9888    1824.0471    6198.4421    6897.9134    5923.7589     -970.368   -542.40091    -233.5707     292.4402 
   31000        31000    296.16234    89584.282     6151.293     0.979621   -1342.4772    1967.1538    6350.2261    5692.9742    6410.6786    -1090.582    -374.2736   -344.13715    296.16234 
   32000        32000    293.76412    89584.282    6179.7655     0.979621   -1344.5584    1938.2723    6890.8138    5348.3573    6300.1255   -1956.0106   -847.58703   -140.65693    293.76412 
   33000        33000    293.15215    89584.282    6970.7153     0.979621   -1364.5393    1911.4527    6625.6116    7020.4074    7266.1269   -1171.7073   -71.367471    36.215364    293.15215 
   34000        34000    293.32874    89584.282    5534.0555     0.979621   -1293.5484     1984.417    5274.6804    6189.1755    5138.3105   -1043.6536   -137.94325   -503.48206    293.32874 
   35000        35000    289.29383    89584.282     6468.802     0.979621   -1347.4448    1885.4302    6874.5235    6143.2056    6388.6769   -1389.9092    357.12967    405.36742    289.29383 
   36000        36000    294.32761    89584.282    5808.2584     0.979621   -1329.6422    1959.4856     5860.684    6008.6921    5555.3991   -861.16824    346.78671   -200.27188    294.32761 
   37000        37000     291.7217    89584.282    6299.3386     0.979621   -1327.4481    1932.5584    6801.3653    7399.5318    4697.1187   -1033.6677    13.567077   -267.35835     291.7217 
   38000        38000    295.95532    89584.282    6562.4858     0.979621    -1380.803    1926.5145    6634.3552     6886.208    6166.8942   -1736.2505    147.47807    782.66814    295.95532 
   39000        39000    294.36047    89584.282    6589.8833     0.979621   -1277.9467    2011.5483    6448.4823    5845.0585     7476.109   -1276.6332    502.15654   -79.432937    294.36047 
   40000        40000     291.5023    89584.282    6554.2299     0.979621   -1332.4268     1925.128    6734.5118    6167.7057    6760.4723   -818.81077   -308.28756    479.38748     291.5023 
   41000        41000    294.46388    89584.282    6019.8704     0.979621   -1301.6975    1988.9531    5820.8926    6224.1103    6014.6082   -1026.9225    322.33927   -490.62581    294.46388 
   42000        42000    295.69171    89584.282    6675.2134     0.979621   -1379.7749    1924.5968    6323.8168    7505.4068    6196.4164    136.56302   -43.112138   -461.78575    295.69171 
   43000        43000    289.86049    89584.282    6618.7949     0.979621   -1261.6047    1977.6028    5895.1498    7202.5452    6758.6896   -2310.5027    861.52912   -604.13125    289.86049 
   44000        44000    292.04178    89584.282     7079.702     0.979621   -1289.1908    1974.3927    7693.6864    6733.2883    6812.1311   -1120.0426   -247.97791   -987.56764    292.04178 
   45000        45000    289.32255    89584.282    6364.2546     0.979621   -1282.2175    1950.9785    6899.0582    5656.4283    6537.2773   -870.64953 -0.033200362   -153.61618    289.32255 
   46000        46000    290.27543    89584.282    6502.9572     0.979621   -1242.1851    2001.6593     6204.947    5751.1028    7552.8218   -2212.2423   -136.95434    167.50798    290.27543 
   47000        47000    288.12546    89584.282    6657.7935     0.979621   -1343.8451    1875.9732    7319.3561    6609.7495    6044.2748   -894.50184   -317.19808   -642.12721    288.12546 
   48000        48000    294.12827    89584.282    6106.5334     0.979621   -1198.9065    2087.9936    6678.4478    6279.6477    5361.5045   -1685.9852   -621.04201    512.41238    294.12827 
   49000        49000     294.7935    89584.282    5571.6124     0.979621   -1367.2857    1927.0484    5471.7796    5578.4995    5664.5583   -1783.3476   -17.755286   -1075.1232     294.7935 
   50000        50000    294.69776    89584.282    5939.3403     0.979621   -1253.6136    2039.6506    6497.8739    4830.9391     6489.208   -1687.4493   -378.75633   -705.55463    294.69776 
   51000        51000    294.54895    89584.282    5820.8634     0.979621   -1314.7806    1976.8207    6420.0526    5779.0667    5263.4708   -1714.9967    394.69435    237.04164    294.54895 
   52000        52000    295.42602    89584.282    5692.1061     0.979621    -1274.924    2026.4786    6298.2596    5286.9399    5491.1188   -785.81308    48.122005   -390.68808    295.42602 
   53000        53000     290.5579    89584.282     6984.694     0.979621    -1286.643    1960.3581    6880.9729    7243.4414    6829.6676    -1260.871   -228.05615    948.19593     290.5579 
   54000        54000    298.30233    89584.282    6611.3297     0.979621   -1262.1823    2071.3632    6592.7634    5574.9271    7666.2986   -1363.4207   -218.86136   -427.13506    298.30233 
   55000        55000    291.97159    89584.282    6641.6126     0.979621   -1228.0863    2034.7128    6787.5603    6103.2779    7033.9996   -1441.8146       465.36    -37.82001    291.97159 
   56000        56000    289.53522    89584.282    7074.5249     0.979621   -1272.2671    1963.3055    5899.2646    7680.2883    7644.0218   -1835.8676   -123.09725   -471.46973    289.53522 
   57000        57000     294.1188    89584.282    7014.5827     0.979621    -1242.661    2044.1333    6147.0653    7790.4301    7106.2528   -2025.0032    359.67459    61.346102     294.1188 
   58000        58000    297.84171    89584.282     6664.475     0.979621   -1285.7018    2042.6963    7447.1192    6041.8547    6504.4512    -1626.218    52.925539    60.459574    297.84171 
   59000        59000    290.13969    89584.282    5396.8003     0.979621   -1325.8113    1916.5162    5771.3683    5202.5259    5216.5068   -2135.6652   -90.302606    89.685497    290.13969 
   60000        60000    293.66595    89584.282    6319.3702     0.979621   -1227.3412    2054.3925    6936.2553    6301.4268    5720.4284   -1637.4507    888.11559   -124.60558    293.66595 
   61000        61000    292.28438    89584.282    6429.0837     0.979621    -1235.461    2030.8336    6372.9114    6573.6858    6340.6539   -1274.5809    280.13286   -140.80144    292.28438 
   62000        62000    291.04804    89584.282    7002.1585     0.979621   -1172.2896    2080.1888    7132.4116    6434.5211    7439.5427   -2044.3542    444.19283   -764.30218    291.04804 
   63000        63000    288.25481    89584.282    6726.6467     0.979621   -1233.7396    1987.5243    6155.1243     5685.672    8339.1437    -1956.495    17.387781   -3.2475855    288.25481 
   64000        64000    295.61167    89584.282      6788.95     0.979621   -1176.8973    2126.5799    7413.3458      6986.95    5966.5542   -2110.7018   -604.22191    692.46328    295.61167 
   65000        65000    291.45906    89584.282    5893.6752     0.979621   -1268.2239    1988.8477    6349.7567    6361.7884    4969.4805   -1414.6447    289.83948    74.857826    291.45906 
   66000        66000    290.18405    89584.282    6793.2603     0.979621   -1187.2264    2055.5969     6232.801    7764.9147    6382.0652   -1135.3255    325.67373   -212.89033    290.18405 
   67000        67000    292.70601    89584.282     6939.433     0.979621   -1237.5694    2033.4369    7785.9402    6407.7409    6624.6179   -1588.3005   -454.90666    116.45467    292.70601 
   68000        68000    291.01526    89584.282    6543.6443     0.979621   -1185.6423    2066.4698    6478.0344    6002.4986    7150.3999   -1214.4636   -188.03446   -384.19423    291.01526 
   69000        69000    288.66001    89584.282    7224.0251     0.979621   -1217.7606    2008.0314    7237.4363    7784.2453    6650.3938   -1410.4294    104.88973    -117.2741    288.66001 
   70000        70000    287.74953    89584.282    7763.5734     0.979621   -1147.6207    2067.9967    8336.0486    7505.6161    7449.0555   -874.09845   -664.13743    89.136631    287.74953 
   71000        71000    292.29021    89584.282    7349.2294     0.979621   -1286.4395    1979.9202    8206.8846    7090.3982    6750.4054     -2307.94    2.9681701     268.8026    292.29021 
   72000        72000    293.11898    89584.282    6800.7362     0.979621   -1217.7472     2057.874    7083.8375    7026.8899    6291.4811   -1652.4048     182.5761    373.85703    293.11898 
   73000        73000    287.87076    89584.282    6083.8957     0.979621   -1242.9092    1974.0629    6036.4131      5400.72    6814.5541   -1495.9653   -145.81503   -322.90338    287.87076 
   74000        74000    297.03308    89584.282    6514.5879     0.979621   -1253.5608    2065.8008    5952.1124    7330.3396    6261.3118   -1782.9118   -350.81334    440.49118    297.03308 
   75000        75000    295.61952    89584.282    6225.0876     0.979621   -1251.8242    2051.7407    6745.2103     5845.548    6084.5045   -867.49055    139.20997    1051.1823    295.61952 
   76000        76000    294.15769    89584.282    7038.0612     0.979621   -1186.2862    2100.9427    7337.9153    7020.6079    6755.6604   -1729.9629   -689.96789    132.84476    294.15769 
   77000        77000    292.99726    89584.282    7157.6773     0.979621   -1199.9033    2074.3577    7766.3978    6763.3526    6943.2815    -1803.894    280.60675      180.735    292.99726 
   78000        78000    296.60447    89584.282    7394.6134     0.979621   -1246.9902    2067.5816    7881.0079    7857.0991    6445.7332   -2362.1541   -239.35868    575.85588    296.60447 
   79000        79000     294.5563    89584.282    7605.5287     0.979621   -1156.0839    2135.5995    6699.9906    8693.3794    7423.2162   -1461.4404   -1015.7142    138.09602     294.5563 
   80000        80000    288.29368    89584.282    6851.7355     0.979621    -1216.123    2005.5753    5747.3477    6727.5159    8080.3429   -910.66193    347.35676   -171.12543    288.29368 
   81000        81000    293.91115    89584.282    6647.0285     0.979621    -1146.657    2137.8168    6849.2047    6999.2105    6092.6703   -1275.2709   -265.76478    32.023462    293.91115 
   82000        82000    286.55459    89584.282    6273.7176     0.979621   -1150.2624    2052.0015    6325.6338     6369.097     6126.422   -1566.0208    -825.4039   -475.03721    286.55459 
   83000        83000    294.48544    89584.282    6799.4449     0.979621   -1135.8664    2155.0251    6964.8909    6892.2261    6541.2178   -1359.5521   -410.71634    284.75277    294.48544 
   84000        84000    295.01906    89584.282    6667.4736     0.979621   -1281.1646    2015.6902    6140.3544     7503.401    6358.6654   -1037.8843     150.4165     166.4458    295.01906 
   85000        85000    297.61534    89584.282    6624.3574     0.979621   -1174.0026    2151.8658    7000.8757    6938.0414    5934.1552    -1800.278   -476.81285    139.11465    297.61534 
   86000        86000    288.18306    89584.282    7105.1392     0.979621   -1103.2257    2117.2364    7194.6566    6592.1439    7528.6172   -1988.3634   -244.65041    -470.5488    288.18306 
   87000        87000    294.79195    89584.282     7056.338     0.979621   -1200.5807    2093.7361    6530.6737    7429.7769    7208.5634   -1585.5691    602.36605   -366.09277    294.79195 
   88000        88000    290.19678    89584.282    7394.0334     0.979621   -1184.5342    2058.4314    6628.2615    7826.2233    7727.6152   -2271.6214    -14.16636    -529.6548    290.19678 
   89000        89000    289.77106    89584.282    7171.7524     0.979621   -1108.2502    2129.9578    6697.8541    7706.8217    7110.5815   -2025.1639    365.12245    865.58349    289.77106 
   90000        90000    289.09102    89584.282    7348.4377     0.979621   -1122.9359    2107.6726     7960.168    7590.8965    6494.2485   -2095.6259    409.77921   -378.66376    289.09102 
   91000        91000    292.94355    89584.282     6204.509     0.979621   -1082.1951    2191.4658    5967.7137    6423.9781    6221.8353   -1789.8933    462.82023    242.78792    292.94355 
   92000        92000    294.26703    89584.282    6667.0243     0.979621   -1146.6722    2141.7786     6297.079     7023.491    6680.5029   -2032.6879    -465.1382   -878.83908    294.26703 
   93000        93000    289.11429    89584.282    7941.1327     0.979621   -1138.2291    2092.6395    8912.2026    7736.9233    7174.2724   -2414.0835   -244.52297    515.90785    289.11429 
   94000        94000    294.21509    89584.282    7903.4886     0.979621   -1157.1426    2130.7278    8006.2017    8197.5137    7506.7504   -1262.3843   -301.06013   -482.98502    294.21509 
   95000        95000    291.48934    89584.282    5954.9038     0.979621   -1122.2971    2135.1129    6570.6559    4928.6373    6365.4181   -1640.1368    332.29635    944.71868    291.48934 
   96000        96000    295.07894    89584.282    7201.9901     0.979621   -1151.6983    2145.8257    7158.4707     6513.713    7933.7867   -1535.6489   -128.55741    215.96724    295.07894 
   97000        97000    298.26827    89584.282     7669.495     0.979621   -1150.3909     2182.774    6335.5572    8408.5013    8264.4266   -1671.3388    247.28966    199.02012    298.26827 
   98000        98000    297.75451    89584.282    6644.7111     0.979621   -1201.4372    2125.9863    6909.4673    5995.3345    7029.3314   -2043.0669   -846.42561   -582.39805    297.75451 
   99000        99000    289.37108    89584.282    6843.4338     0.979621    -1014.406    2219.3323    7185.7032    7247.4872     6097.111   -2130.2039    19.232515    751.31207    289.37108 
  100000       100000    286.32639    89584.282    6882.1032     0.979621   -1171.7047    2028.0089     6637.697    6725.6722    7282.9406   -1444.9446    980.13797    185.17802    286.32639 
  101000       101000    291.30257    89584.282    7164.0998     0.979621    -1027.029    2228.2939    7427.6286    7593.0218    6471.6491   -1685.3019   -304.09753   -500.83627    291.30257 
  102000       102000    292.39755    89584.282     7774.879     0.979621   -1184.0441    2083.5152    7606.6902    7744.7977     7973.149   -1588.3339    -234.7982   -252.71207    292.39755 
  103000       103000    294.53122    89584.282    7082.8444     0.979621   -1013.7791    2277.6241    7507.4599    7556.5794     6184.494   -1845.9329    -6.851498    10.576615    294.53122 
  104000       104000    296.56544    89584.282    7136.3448     0.979621   -1074.6363    2239.4994    7088.5713     7105.086    7215.3771   -2182.3003    1150.4085    670.00852    296.56544 
  105000       105000    286.59571    89584.282    7179.1775     0.979621   -1073.0603    2129.6631    6362.6366    7528.0186    7646.8773     -1762.86   -505.88941   -200.14557    286.59571 
  106000       106000    291.62586    89584.282    7293.9193     0.979621   -992.30645    2266.6291    7915.1671    7492.9646    6473.6262   -1617.9561    148.94756   -575.43799    291.62586 
  107000       107000     290.2922    89584.282    5855.7808     0.979621    -1098.816    2145.2159    5538.7757    6195.8357    5832.7311   -1478.2188    385.52545    309.96105     290.2922 
  108000       108000    292.03366    89584.282    6929.5388     0.979621   -1026.4569    2237.0359    6875.7537    7534.6328    6378.2298   -1999.3698    567.04732    664.02996    292.03366 
  109000       109000    292.15892    89584.282    8024.0549     0.979621   -1087.8212    2177.0713    7966.5322    8033.0479    8072.5847   -1988.7772   -530.84067   -16.246123    292.15892 
  110000       110000    295.48242    89584.282    8173.5107     0.979621   -1030.9022    2271.1306    8902.8715    7798.1441    7819.5166   -1292.8775   -377.00398   -60.534685    295.48242 
  111000       111000    289.77287    89584.282     6741.506     0.979621   -1103.2492    2134.9791    5919.0176    7296.7644    7008.7361   -2045.0461   -74.978323   -282.45434    289.77287 
  112000       112000    296.84289    89584.282    6844.2704     0.979621   -1058.3386    2258.8976    6575.9712    6829.5868    7127.2531   -2754.5129   -846.66632    219.24227    296.84289 
  113000       113000    283.08441    89584.282    6867.8943     0.979621   -1047.0514     2116.433    6983.2271    7059.1678    6561.2879   -1357.8333   -286.70771   -123.71813    283.08441 
  114000       114000     294.3199    89584.282    6765.2542     0.979621   -1032.0054    2257.0362    6499.3544    6471.7882    7324.6201   -1529.4177    441.50142    602.25984     294.3199 
  115000       115000     290.6902    89584.282      6725.96     0.979621   -1051.9807    2196.4988    6902.1508    7105.2124    6170.5168   -1568.1771   -727.99953    127.33338     290.6902 
  116000       116000    290.53381    89584.282    7270.6016     0.979621   -1016.5648     2230.167    7079.3533    7317.3958    7415.0557   -1180.6115    3.0149188   -359.51597    290.53381 
  117000       117000    290.34986    89584.282    7338.3834     0.979621   -1117.0462      2127.63    6945.0183    7613.2255    7456.9065   -571.83842    501.99175    22.725644    290.34986 
  118000       118000    288.45649    89584.282    6046.7695     0.979621   -1007.7645    2215.7531    5978.3345     7022.289     5139.685   -1327.7226   -111.67001   -341.26402    288.45649 
  119000       119000     298.5823    89584.282    6967.9228     0.979621    -1120.219    2216.4552    7438.2119    7210.8393    6254.7173   -1424.5461    197.19206    55.025733     298.5823 
  120000       120000    292.56788    89584.282    7595.2738     0.979621   -1105.6535    2163.8092    6704.6038    7403.2521    8677.9654   -1039.1803    77.904981    -468.9467    292.56788 
  121000       121000    299.26279    89584.282     6713.143     0.979621   -1093.9626    2250.3162     5917.005    7850.1776    6372.2464   -689.56925   -399.63435   -286.71008    299.26279 
  122000       122000    291.10811    89584.282    6801.4233     0.979621   -1102.9499    2150.1998    7766.6791    6228.0534    6409.5373   -2438.9353    280.80555    68.173963    291.10811 
  123000       123000    299.18017    89584.282    6822.4578     0.979621   -1016.5164     2326.839    6779.6129    7252.0517    6435.7088   -1740.1847    345.58195    252.26337    299.18017 
  124000       124000    290.00552    89584.282    7377.7779     0.979621    -1065.441    2175.3872    7358.0581    8197.5556    6577.7201   -1514.7921   -317.12753   -498.40078    290.00552 
  125000       125000    287.92384    89584.282     7197.692     0.979621   -1038.0501    2179.5152    6218.6487    7557.3757    7817.0517   -1924.2091    310.06817   -423.40627    287.92384 
  126000       126000    295.32139    89584.282    7126.2713     0.979621   -1107.0743    2193.1591    7203.2849    7833.5946    6341.9344   -1823.9342    335.36503    414.84657    295.32139 
  127000       127000    294.01618    89584.282    7357.5735     0.979621   -1048.7328    2236.9147     7833.037    6942.5817    7297.1019   -1716.6168   -561.16201    722.24123    294.01618 
  128000       128000     289.5999    89584.282    7514.6501     0.979621   -1103.4341    2132.8613    6884.1825    7164.0506    8495.7172   -1924.2589    799.71161     464.8162     289.5999 
  129000       129000    294.18009    89584.282    7398.6073     0.979621   -1029.8311     2257.648    6783.6526     8017.467    7394.7022   -1824.5266   -145.29879   -154.31012    294.18009 
  130000       130000    291.94542    89584.282    6307.5614     0.979621   -1100.5188    2161.9878    6015.8594     5963.202    6943.6228   -1786.7916   -170.50474    -343.1298    291.94542 
  131000       131000    296.70349    89584.282    6846.3299     0.979621   -1083.0349    2232.6434    6416.9634    6348.9702    7773.0561   -1754.6391    541.90041    172.73835    296.70349 
  132000       132000    296.82937    89584.282    6966.6776     0.979621   -1075.8863    2241.1988    7058.0783     7530.605    6311.3495   -1786.5877    247.40897   -610.02839    296.82937 
  133000       133000    296.17743    89584.282    5831.7105     0.979621   -1068.2652    2241.5344    5824.9118    6531.3744    5138.8452   -2904.0967    18.943762   -626.83733    296.17743 
  134000       134000    291.18183    89584.282     8243.776     0.979621   -1032.6378    2221.3357    7529.2371    9014.8038    8187.2871   -1632.4083   -66.158604   -550.91479    291.18183 
  135000       135000    282.42017    89584.282    6640.6957     0.979621   -1077.6702    2078.3913    6294.5404    6675.0247    6952.5221   -1657.4904   -784.00675   -492.41154    282.42017 
  136000       136000    294.90646    89584.282     7862.765     0.979621   -971.25052     2324.346    7922.7702    8295.4511    7370.0737   -1494.6955   -443.33765   -914.59196    294.90646 
  137000       137000    290.06553    89584.282    7009.8614     0.979621   -1109.8441    2131.6548    6461.0656    8179.2503    6389.2683   -1617.9706   -203.65404    190.76676    290.06553 
  138000       138000    295.31742    89584.282    7556.4212     0.979621   -1011.2937    2288.8952    7457.3963    7648.8065    7563.0607    -1650.333    293.67412    218.35307    295.31742 
  139000       139000    295.33777    89584.282    6152.2762     0.979621   -1066.9217    2233.4947    5723.1524    6482.5497    6251.1263   -1847.3332    628.73865   -217.40795    295.33777 
  140000       140000    288.10835    89584.282    7425.4694     0.979621   -994.88135    2224.7458    7731.9121    7006.9791    7537.5171   -1918.7539   -261.86236    139.95432    288.10835 
  141000       141000    299.80729    89584.282    6106.5643     0.979621   -1026.4513    2323.9122    6088.1452    5977.2299    6254.3179   -1343.4999   -834.87639   -1020.1719    299.80729 
  142000       142000    298.80532    89584.282      7067.54     0.979621   -1049.1939    2289.9726    7107.6246    7189.5742    6905.4213   -466.61477    -32.00747    651.72647    298.80532 
  143000       143000    290.99054    89584.282    7447.8286     0.979621     -1063.03    2188.8059    6917.4262    8276.7804    7149.2793   -1209.8128   -563.29543   -103.93782    290.99054 
  144000       144000    295.26761    89584.282    6855.8849     0.979621   -1026.3709    2273.2615     6017.587    6832.1152    7717.9526   -2006.4415   -153.85633    -3.834803    295.26761 
  145000       145000     287.3119    89584.282    7412.7865     0.979621   -1081.1494    2129.5774    6892.9147    7180.7582    8164.6867    -1408.569   -71.616571   -1055.9333     287.3119 
  146000       146000     295.8584    89584.282    7884.9345     0.979621   -973.69586    2332.5385    8595.8573    8596.2774    6462.6688    -1366.537   -686.94286    360.25803     295.8584 
  147000       147000    298.49785    89584.282    7307.3622     0.979621   -1002.4852    2333.2453    6841.9692    7858.2321    7221.8852   -1717.0731    81.191955    -259.7558    298.49785 
  148000       148000    288.70876    89584.282    7316.7383     0.979621    -1014.603    2211.7338    7332.1632     7165.854    7452.1976   -1738.2712     1.348791    1425.9515    288.70876 
  149000       149000    294.27172    89584.282    8339.0031     0.979621   -1024.0754    2264.4278    7924.0395    8855.0196    8237.9501   -1214.2836    379.70688    425.32523    294.27172 
  150000       150000    297.81023    89584.282    6876.7628     0.979621   -1017.3983    2310.6479     6269.984    7558.1205     6802.184   -1711.6062   -310.01299   -233.05013    297.81023 
  151000       151000    292.95478    89584.282    7074.5759     0.979621   -1027.2001    2246.5863    7100.4541    6337.5021    7785.7715   -1586.1608    2.7495476   -723.31015    292.95478 
  152000       152000    291.10239    89584.282    6613.6936     0.979621   -991.94242    2261.1434    5333.4129    6729.9558    7777.7122    -1185.389   -561.91354    676.92603    291.10239 
  153000       153000    290.18996    89584.282    7769.0859     0.979621   -1047.3825    2195.5068    7000.4479    7606.3417     8700.468   -1543.9797     1.332189    -25.99357    290.18996 
  154000       154000    286.71314    89584.282    6760.7175     0.979621    -952.8514    2251.1843    5503.9043     7199.848    7578.4003   -2048.2962    160.98275    442.47762    286.71314 
  155000       155000    291.50944    89584.282    6341.2695     0.979621   -1036.4778    2221.1567    6276.7988     6243.138    6503.8717   -1418.5025    -294.4474    51.922058    291.50944 
  156000       156000    291.39506    89584.282    6992.4662     0.979621   -940.11592    2316.2405    6452.3308     6841.129    7683.9389    -1782.883   -623.13183     29.51731    291.39506 
  157000       157000    293.02669    89584.282    7929.9733     0.979621   -969.47288     2305.117    7297.9193    8149.0809    8342.9196   -497.34642   -78.094179   -45.302317    293.02669 
  158000       158000    297.65169    89584.282    6199.3033     0.979621    -985.2187    2341.0559    6811.1888    5818.0873    5968.6337    -1075.331    285.11863    388.12376    297.65169 
  159000       159000    296.75775    89584.282    7803.5132     0.979621   -897.43367     2418.851     6963.434    8014.0646     8433.041   -1207.2073    390.85521    176.00771    296.75775 
  160000       160000    292.62548    89584.282    6738.1949     0.979621   -1037.6078    2232.4985    6264.4622    6746.9891    7203.1333   -1588.1347   -15.431867    315.36049    292.62548 
  161000       161000    293.42006    89584.282    6774.9175     0.979621   -951.59713    2327.3888    5361.2976    7175.5575    7787.8972   -1751.7151    219.19701    156.76214    293.42006 
  162000       162000    294.05612    89584.282    7816.2466     0.979621   -930.31809    2355.7757    7353.0289    8492.4534    7603.2574   -1278.8063   -396.35396    156.85477    294.05612 
  163000       163000    290.82391    89584.282    7631.1509     0.979621    -1008.904    2241.0698    7845.9802    7372.0064    7675.4662   -894.78208   -462.20812   -494.45674    290.82391 
  164000       164000    301.17006    89584.282    7252.1784     0.979621   -961.38487    2404.2077    7404.3645    6379.6916    7972.4792   -2035.6701   -335.95625    501.90488    301.17006 
  165000       165000    291.30327    89584.282    7633.3091     0.979621   -955.26722    2300.0634    8160.8164    6699.5889     8039.522   -1855.0391    210.01732    248.55367    291.30327 
  166000       166000    288.63504    89584.282     7147.455     0.979621   -967.76184    2257.7511    6333.3123    6697.0791    8411.9736   -1867.1668   -149.38852   -60.420239    288.63504 
  167000       167000    294.72824    89584.282    6556.2563     0.979621    -920.6726    2372.9323    6276.8651    7224.3961    6167.5077   -1676.3716    85.407104    670.34639    294.72824 
  168000       168000    288.63257    89584.282    6970.6812     0.979621    -965.6012    2259.8841    6930.9749    6499.8817     7481.187   -2744.9702    -80.99629    345.58774    288.63257 
  169000       169000    298.72791    89584.282    7448.5554     0.979621   -945.62765    2392.6738    7357.6969    7114.2694       7873.7   -1200.6106   -553.79059    209.75728    298.72791 
  170000       170000    286.79997    89584.282    6656.4119     0.979621   -940.04844    2264.9576    6251.3844     6656.026    7061.8253   -1801.0664    683.01568    536.75204    286.79997 
  171000       171000     293.4749    89584.282    6375.7182     0.979621   -899.71634    2379.8824    6451.0211    6954.4376    5721.6959   -1630.5899   -622.35761   -619.51236     293.4749 
  172000       172000    294.57406    89584.282    7371.0205     0.979621   -928.75702    2363.1248    6768.6558    8033.6573    7310.7484   -1218.3535     304.3454    164.51072    294.57406 
  173000       173000    295.75155    89584.282     7295.379     0.979621   -1012.5394     2292.501    6772.5253     8005.786    7107.8256   -1420.4649   -371.06644    745.01631    295.75155 
  174000       174000    295.49451    89584.282    6842.9136     0.979621   -939.15052    2363.0175    6069.8205       6723.8    7735.1204   -2134.7634    443.74582   -260.09336    295.49451 
  175000       175000    289.02665    89584.282    7459.2656     0.979621   -952.57246    2277.3168    6803.3459    7743.3818     7831.069   -1358.0123   -668.99492   -89.625562    289.02665 
  176000       176000    289.02658    89584.282    7381.6501     0.979621   -877.25248     2352.636    7279.3153    6867.8806    7997.7545   -1507.7262    130.71732    97.080701    289.02658 
  177000       177000    297.51371    89584.282    6464.2022     0.979621   -960.10057     2364.632    6180.7965    5951.5852    7260.2249   -914.07245   -292.15221   -754.27815    297.51371 
  178000       178000    287.77016    89584.282    7556.5522     0.979621   -1002.0372    2213.8107    7314.3587    7971.3235    7383.9744   -1910.3075    240.30528   -160.60494    287.77016 
  179000       179000     292.2463    89584.282    6612.0868     0.979621   -806.90823    2458.9608    6731.4004    6503.5497    6601.3103    -1115.996    315.27116    685.01442     292.2463 
  180000       180000    288.44754    89584.282    7167.4037     0.979621   -888.25298    2335.1647     6677.186    7683.8737    7141.1513    -1526.082    667.87799    552.96931    288.44754 
  181000       181000     293.2155    89584.282    8280.4478     0.979621   -869.26299    2407.4369    8441.1806    8354.4033    8045.7596   -1892.3704    82.708992    255.67814     293.2155 
  182000       182000    293.89702    89584.282    6944.2817     0.979621   -971.19295     2313.123    6494.1829      6442.69    7895.9723   -738.93663    258.34682    294.13908    293.89702 
  183000       183000    287.54056    89584.282    7439.5006     0.979621   -897.43711     2315.845     8262.994    6565.1602    7490.3477   -1102.1195    5.6605921   -659.31362    287.54056 
  184000       184000    290.22901    89584.282    6875.5832     0.979621   -880.45464    2362.8711    6821.7994    6371.6369    7433.3134   -1042.4494   -509.33387   -98.228034    290.22901 
  185000       185000    289.81854    89584.282    7662.9425     0.979621   -961.60538    2277.1333    7452.0551    8078.0624    7458.7101   -2033.7863    120.48429    889.68489    289.81854 
  186000       186000    295.18633    89584.282    7886.4628     0.979621    -883.6615    2415.0625     7064.587    8764.9408    7829.8607    -877.4982   -342.06773    98.929349    295.18633 
  187000       187000    297.93344    89584.282    7012.0679     0.979621   -956.22918    2373.1939    7482.4319    6382.8507     7170.921   -1424.3282    -27.31477   -395.90986    297.93344 
  188000       188000    287.99644    89584.282    8095.9466     0.979621   -889.20942    2329.1671    8106.4585    8329.1067    7852.2745   -1821.6033   -548.37867   -213.14122    287.99644 
  189000       189000    296.72039    89584.282    7345.4947     0.979621   -948.10246    2367.7648     7272.341    7179.0629    7585.0802   -1075.3848   -357.56581   -489.67753    296.72039 
  190000       190000    292.25116    89584.282    7415.2202     0.979621     -953.299    2312.6244    7656.1175    8049.3905    6540.1526   -1342.5345    611.49328    592.44311    292.25116 
  191000       191000    294.38976    89584.282    6830.8152     0.979621   -900.83553    2388.9868    6130.5681      7403.91    6957.9676   -949.44537   -113.37353    170.63468    294.38976 
  192000       192000    293.54083    89584.282    7401.6525     0.979621    -904.7019    2375.6335    6630.6758    8288.8523    7285.4294   -1193.6845    1094.5027    741.89179    293.54083 
  193000       193000    289.95905    89584.282    7895.1564     0.979621   -921.00036    2319.3085     7959.217       7777.1    7949.1521   -1797.9263   -719.31562   -245.21993    289.95905 
  194000       194000    299.62119    89584.282     7396.536     0.979621   -889.65332    2458.6306    7010.2195    7545.6605    7633.7279    -1523.611   -91.114313   -267.17539    299.62119 
  195000       195000    293.06056    89584.282    7609.9555     0.979621   -929.22764    2345.7408    8386.2135    7334.3501    7109.3029   -1089.0034   -169.53162    965.82876    293.06056 
  196000       196000    291.75036    89584.282      6535.35     0.979621   -827.66903    2432.6579    6626.3273    6761.2017    6218.5211   -2049.4322    254.27419   -102.90816    291.75036 
  197000       197000    294.16701    89584.282    7295.4801     0.979621   -927.84084    2359.4922    7670.6942    7160.6079    7055.1383   -2485.2101   -116.78251    346.22312    294.16701 
  198000       198000    295.11927    89584.282     6776.078     0.979621   -897.71451    2400.2602    7150.2376    6769.4736    6408.5227   -1301.2075    436.99196   -119.77837    295.11927 
  199000       199000    291.63998    89584.282    7623.4873     0.979621   -920.20497    2338.8884    7840.9281     7668.796    7360.7378   -1070.3536   -813.17917   -674.21439    291.63998 
  200000       200000    293.25681    89584.282    7727.5106     0.979621   -857.34075    2419.8208    8817.8386    7530.9802    6833.7131   -1231.6327    99.038132    916.33074    293.25681 
  201000       201000    289.46312    89584.282    7174.1884     0.979621   -906.89932    2327.8675    7039.8654    6895.0455    7587.6544   -1751.8561   -423.94594   -272.82409    289.46312 
  202000       202000    292.86326    89584.282    7973.5254     0.979621   -848.81168    2423.9519    7413.3129    7514.4434    8992.8198   -1390.8952   -982.18845    202.92222    292.86326 
  203000       203000    292.08372    89584.282    7140.6163     0.979621   -829.12337    2434.9288     6533.884    6449.8728     8438.092   -1004.6928    -176.0998    -406.8545    292.08372 
  204000       204000    292.39643    89584.282    6546.8643     0.979621   -896.49532    2371.0514    5850.8869    7607.4528    6182.2531   -1476.3499     807.5851   -166.42093    292.39643 
  205000       205000    291.27038    89584.282    7331.5556     0.979621   -882.00725    2372.9558    6744.0774     8467.363    6783.2265   -1750.9661    115.28359    107.81852    291.27038 
  206000       206000    292.10757    89584.282    7440.3936     0.979621   -904.32175     2359.997    7424.4192    7354.7485    7542.0131   -2452.0181   -935.02175    375.64228    292.10757 
  207000       207000    302.00784    89584.282    7433.2635     0.979621   -935.74626    2439.2085    6856.7993    7630.6364    7812.3549   -2269.2152   -39.807425   -564.59491    302.00784 
  208000       208000    289.24151    89584.282    7437.4905     0.979621   -840.94708    2391.3432      8097.36    7139.6736    7075.4378   -1516.3619   -396.92923    650.36039    289.24151 
  209000       209000    292.48207    89584.282    7779.3327     0.979621   -814.95847    2453.5453    7657.8271    8498.9318    7181.2393   -1869.9992    480.66069   -216.48603    292.48207 
  210000       210000    289.24321    89584.282    8746.0924     0.979621   -875.35276    2356.9566    8840.0086    8565.8694    8832.3991   -1552.1404    505.09313   -636.66517    289.24321 
  211000       211000    300.04084    89584.282    7568.4819     0.979621   -853.74147     2499.232    7259.6206    8420.2875    7025.5375    -2707.889    1001.2112    178.23634    300.04084 
  212000       212000    292.77493    89584.282    6692.7538     0.979621    -923.9825     2347.794    6848.5475    6375.5258     6854.188   -2098.8537    63.519382    848.27513    292.77493 
  213000       213000    298.71386    89584.282    7665.5137     0.979621    -852.3928    2485.7516    8081.9685    7064.3794    7850.1931     -1495.41    312.68046    -328.9306    298.71386 
  214000       214000    291.69321    89584.282    6388.7909     0.979621   -854.14333    2405.5449    6401.7396    6557.9839    6206.6491   -1716.6615    -379.6055     716.9524    291.69321 
  215000       215000    291.41307    89584.282    8795.0868     0.979621    -847.0218    2409.5358    8266.6405     8910.102    9208.5179   -1938.2769   -716.52894    8.1037301    291.41307 
  216000       216000    287.92247    89584.282    6842.4659     0.979621   -901.67778    2315.8722    7329.5183    6735.9711    6461.9083   -1283.3595    226.20043   -357.22333    287.92247 
  217000       217000    299.21093    89584.282    7699.6847     0.979621   -758.28461    2585.4146    7735.6723    7753.3467     7610.035   -1432.0475   -678.49511    417.74193    299.21093 
  218000       218000    289.11464    89584.282    8195.2113     0.979621   -887.81183    2343.0607    7800.2261    9000.4327    7784.9751   -1697.1855   -581.22661   -587.73432    289.11464 
  219000       219000    296.39152    89584.282    7019.4426     0.979621   -840.99432    2471.1978    7064.2453    6652.2465    7341.8361   -1001.7763    1.8311848    420.25276    296.39152 
  220000       220000    291.75139    89584.282    6949.3829     0.979621   -820.65353    2439.6849    6892.9376    7120.4974    6834.7138   -1347.6741   -466.27193    431.32399    291.75139 
  221000       221000    295.65675    89584.282    7536.4505     0.979621   -884.22985    2419.7511    7300.0859    7534.4726    7774.7931   -1302.6034   -349.26593    232.07909    295.65675 
  222000       222000    288.34162    89584.282    7194.3384     0.979621   -894.06802     2328.166     6964.083    7260.8641     7358.068   -1519.5362   -138.56106    103.41117    288.34162 
  223000       223000    303.63347    89584.282    7483.0679     0.979621   -824.05473    2569.0665    7883.1239    7195.3964    7370.6833   -1345.0221   -335.45326   -46.746722    303.63347 
  224000       224000    284.95134    89584.282    6975.6987     0.979621   -889.96967    2294.3777    6881.0802    8054.5434    5991.4725   -2202.6776   -756.50501    387.51604    284.95134 
  225000       225000    295.50811    89584.282    7477.4546     0.979621   -833.50192    2468.8181    8329.1773    7199.7682    6903.4182   -1197.6029    295.61926    164.52954    295.50811 
  226000       226000    298.13229    89584.282    7386.3804     0.979621   -879.54505    2452.1003    7318.1782    7073.8619    7767.1011   -1587.8081    238.97352    82.080769    298.13229 
  227000       227000    295.25395    89584.282    8198.5153     0.979621   -835.36191    2464.1177     8878.851    8072.5459    7644.1491   -1573.5844   -234.67145    -363.6163    295.25395 
  228000       228000    294.32414    89584.282    7372.2361     0.979621   -831.24405     2457.845    7087.8938    7829.6384    7199.1763   -1566.0392    53.530295   -288.79161    294.32414 
  229000       229000    293.16544    89584.282    7697.5995     0.979621   -912.41491    2363.7255    8015.5945    7277.8064    7799.3975   -1627.2988   -464.90619   -778.26428    293.16544 
  230000       230000    298.67151    89584.282    7685.0745     0.979621   -793.95596    2543.7152    8249.6647    7703.9057    7101.6531   -1760.0609    918.38106   -138.45031    298.67151 
  231000       231000    290.56753    89584.282    7969.3258     0.979621   -862.47107    2384.6376    8870.5293    7915.1751     7122.273   -1541.3056   -433.26501    484.91169    290.56753 
  232000       232000    293.51464    89584.282    7401.3426     0.979621   -897.50038    2382.5424    7542.0049    7485.1684    7176.8545   -2238.8388    305.98545    695.49656    293.51464 
  233000       233000    294.01581    89584.282    7301.8485     0.979621   -830.13723    2455.5062    7071.4975    7488.1044    7345.9437    -1826.704    209.00089   -961.77814    294.01581 
  234000       234000    291.80734    89584.282    7113.0558     0.979621   -835.64425    2425.3193    6338.3556    7060.5606     7940.251   -2739.0058   -633.38284      387.802    291.80734 
  235000       235000    298.96362    89584.282    7637.1799     0.979621    -870.3992    2470.5363    7524.4564    8224.5549    7162.5284   -859.04167   -274.54893   -152.23108    298.96362 
  236000       236000      294.623    89584.282    8286.7682     0.979621   -875.27659    2417.1521    8636.3257    8054.5086    8169.4704   -634.60379    710.11316   -748.12711      294.623 
  237000       237000     294.7841    89584.282    7827.9432     0.979621   -798.99951    2495.2296    7618.3706    7617.1315    8248.3276   -1802.0089   -685.70423   -273.84798     294.7841 
  238000       238000    290.98069    89584.282    6661.0357     0.979621   -869.31108    2382.4146    7063.0453    6485.0621    6434.9998    -1475.116   -456.52584     452.4766    290.98069 
  239000       239000    291.82639    89584.282    7673.1933     0.979621   -787.60132    2473.5751    7490.4457     8088.642    7440.4922   -1883.0188     111.9393    913.88012    291.82639 
  240000       240000      296.993    89584.282     6273.295     0.979621   -874.12373      2444.79    6193.4519     6679.059    5947.3741   -1969.8271    -537.0446   -488.59445      296.993 
  241000       241000    290.99403    89584.282    7365.5041     0.979621   -785.03309    2466.8418    7109.2574     7759.158    7228.0971   -497.04271   -105.01201   -146.34049    290.99403 
  242000       242000    295.36358    89584.282    7390.7584     0.979621   -795.84888    2504.8559    7825.5915    7442.0576     6904.626   -893.45245   -741.45701   -629.69959    295.36358 
  243000       243000     293.9485    89584.282    6909.0075     0.979621   -887.51936    2397.3719    6480.6542    7561.1001    6685.2682   -2170.9593    364.29427    601.98414     293.9485 
  244000       244000    298.08194    89584.282    6806.1828     0.979621   -759.54062     2571.542    7394.0631    7052.8104    5971.6748   -1258.9804   -93.113351    473.75488    298.08194 
  245000       245000    286.21568    89584.282    7168.9231     0.979621   -927.52543    2270.9511    6856.4451    6902.7818    7747.5423   -1337.3133   -596.83152    305.68144    286.21568 
  246000       246000    293.55251    89584.282    7660.3964     0.979621   -770.10413    2510.3619    7350.2311    8134.4639    7496.4943   -347.09517   -557.02486   -243.62569    293.55251 
  247000       247000    290.82875    89584.282    6857.7092     0.979621   -847.66285     2402.365    7347.0165    6651.3021    6574.8091   -1831.2551   -895.94866     381.9618    290.82875 
  248000       248000    292.97973    89584.282    7241.6632     0.979621   -778.95405    2495.1111    7194.3851    7815.8863    6714.7182   -992.91471    258.84815    129.32251    292.97973 
  249000       249000    297.24207    89584.282    7618.4669     0.979621   -805.18433    2516.5127    7120.5772     8799.261    6935.5627   -2109.9364    572.24806   -503.89092    297.24207 
  250000       250000    289.03813    89584.282    7483.1666     0.979621   -794.53604    2435.4815    6569.1382    7863.9063    8016.4553   -2002.8726   -676.90756    454.61734    289.03813 
  251000       251000    292.97572    89584.282    7091.5933     0.979621   -788.71753    2485.3028    6285.8514     7886.374    7102.5544   -1068.5064   -1145.8486    397.08688    292.97572 
  252000       252000    297.75219    89584.282    7150.9206     0.979621    -741.7823    2585.6153    7190.4424     7542.315    6720.0043   -1646.6896   -1067.2638    128.92026    297.75219 
  253000       253000    285.38531    89584.282    7221.2238     0.979621   -793.40117    2395.7959    7338.2583    7463.6505    6861.7627   -1360.3507   -253.46945   -163.00877    285.38531 
  254000       254000    291.65147    89584.282     7711.544     0.979621   -713.13133    2546.0905    8310.7064    7624.8302    7199.0955   -2120.3228   -207.56205   -266.27368    291.65147 
  255000       255000    292.67694    89584.282    6507.5354     0.979621   -904.22116    2366.4603    5241.1235    6499.1243    7782.3583   -1908.5897   -977.67309    203.72873    292.67694 
  256000       256000    296.90593    89584.282    7343.0357     0.979621   -816.48507    2501.4556    6519.7393    7587.0096    7922.3582   -727.97242   -102.29349   -485.87698    296.90593 
  257000       257000    290.76449    89584.282    6958.0912     0.979621   -816.13398    2433.1757    8400.9108    6603.8789     5869.484   -1995.4759    328.55364     -440.453    290.76449 
  258000       258000     291.9871    89584.282    7881.8324     0.979621   -753.37704    2509.5955    7590.3113    9051.9973    7003.1888    -1463.414   -121.86978   -122.49414     291.9871 
  259000       259000    298.08748    89584.282    7645.4108     0.979621   -822.57789    2508.5666     7602.197    6903.8681    8430.1674   -1788.3076   -545.52353    312.30117    298.08748 
  260000       260000    293.99956    89584.282     7394.769     0.979621   -794.91877     2490.543    8610.2844    7114.4101    6459.6126   -1790.7298     -311.111   -150.55739    293.99956 
  261000       261000    289.15692    89584.282     7717.538     0.979621   -762.83427    2468.5107    8285.3018    8485.1829    6382.1294   -1530.8309   -113.35822   -106.73629    289.15692 
  262000       262000    289.74748    89584.282    8345.5651     0.979621   -765.38248     2472.562    8507.8657    8347.5444    8181.2851   -1381.1885   -1143.4917   -144.41066    289.74748 
  263000       263000    291.30784    89584.282    8029.2768     0.979621   -785.59874    2469.7829    8218.0732    8198.4995    7671.2577   -1822.9861    149.31658   -294.20315    291.30784 
  264000       264000    290.74544    89584.282    7497.0681     0.979621   -686.27839    2562.8185    8070.4789    6718.4944    7702.2309   -2009.9443    266.37553   -253.30447    290.74544 
  265000       265000    293.67282    89584.282    6889.1417     0.979621   -817.55149     2464.259    6972.7533    7153.1701    6541.5019   -788.84853    26.251658    162.61201    293.67282 
  266000       266000    291.43661    89584.282    7619.4874     0.979621   -788.28372     2468.537     7228.806    8750.2532    6879.4028   -1681.0042    -153.6983    -528.7724    291.43661 
  267000       267000    290.07157    89584.282    7268.8187     0.979621   -788.86203    2452.7042     7411.566     7950.589     6444.301   -1698.4949   -200.27312   -592.83938    290.07157 
  268000       268000     290.2024    89584.282    7315.5694     0.979621   -713.45356    2529.5748    6974.9639     7385.387    7586.3572   -1975.0099   -358.22029    165.34529     290.2024 
  269000       269000    297.08277    89584.282    6791.1253     0.979621   -779.46466    2540.4521    6541.2086    8129.0596    5703.1076   -1711.3611   -618.45271     652.4814    297.08277 
  270000       270000    291.63399    89584.282     6845.851     0.979621   -819.64617    2439.3802    6342.5527    7548.0434    6646.9569   -1122.2211    36.854194   -497.97927    291.63399 
  271000       271000    299.53912    89584.282    7065.7835     0.979621   -776.12479     2571.242    6661.8728    7131.3692    7404.1087   -1369.4138   -352.43458   -37.364005    299.53912 
  272000       272000    291.29853    89584.282    7523.9759     0.979621   -831.94783    2423.3298    7412.2966    7366.2934    7793.3378   -1073.1665    80.703251    382.50221    291.29853 
  273000       273000    295.86586    89584.282    7269.3536     0.979621   -799.34042    2506.9774    6040.1722    8905.3814    6862.5072   -913.95258    539.59848    48.959115    295.86586 
  274000       274000    298.20063    89584.282    7138.6362     0.979621   -750.09267    2582.3163    6513.3997    7608.0721    7294.4368   -2109.6613    235.34825    474.41502    298.20063 
  275000       275000    288.35185    89584.282    6180.6552     0.979621   -840.44802    2381.9003    6701.6612    5992.9031    5847.4014   -1484.7286    180.70344   -365.10385    288.35185 
  276000       276000    298.58159    89584.282    6835.8705     0.979621   -751.91717     2584.749    6748.4003      6448.35    7310.8611   -1413.1385   -43.414016   -465.02468    298.58159 
  277000       277000    297.84631    89584.282    7660.2497     0.979621   -813.66422    2514.7853    7203.7178    8357.2995    7419.7317   -1047.3091     348.9392    96.663614    297.84631 
  278000       278000    290.93909    89584.282    7679.2259     0.979621   -853.72854    2397.5324    7549.7712    8092.2345    7395.6718   -1370.3649    271.53413    266.49356    290.93909 
  279000       279000    301.46769    89584.282    7663.5447     0.979621   -780.00547    2588.9131    7273.8794    8432.5314    7284.2234   -2239.6703    550.65376   -660.42317    301.46769 
  280000       280000    292.46012    89584.282    7313.4912     0.979621    -895.2267    2373.0318    7748.0024    6878.8781    7313.5932   -1227.9767   -272.90982   -57.827472    292.46012 
  281000       281000    296.18081    89584.282    7593.0603     0.979621   -713.11209    2596.7253    7681.1667    7486.2518    7611.7626   -1300.9795    -757.1679     149.3621    296.18081 
  282000       282000     291.2876    89584.282    7568.4103     0.979621    -874.8558    2380.2997      6699.71    8775.7564    7229.7645   -1641.3431    787.52215     193.7849     291.2876 
  283000       283000    292.75486    89584.282    7340.6565     0.979621   -791.87463    2479.6776    7149.9543    8499.4599    6372.5555   -1519.0179   -99.590199    16.625736    292.75486 
  284000       284000    292.12247    89584.282    6954.5785     0.979621   -763.02562    2501.4596    6864.2108    7561.7566     6437.768   -1462.9518   -265.76506   -71.462298    292.12247 
  285000       285000    288.99091    89584.282    6728.7776     0.979621   -820.41594    2409.0739    6726.7238    6553.6766    6905.9323   -1025.1854    408.57927    236.45731    288.99091 
  286000       286000     294.3687    89584.282    7058.6148     0.979621   -760.81013    2528.7768    6804.7368    7471.3939    6899.7136   -1596.0015    260.17354    413.26717     294.3687 
  287000       287000    292.33456    89584.282    8154.0339     0.979621   -814.94224     2451.913    7616.2562    9738.5254    7107.3199   -130.27431    458.60341    -514.3377    292.33456 
  288000       288000    294.32609    89584.282    7918.9135     0.979621   -803.41918    2485.6916    6869.8705    9297.9178    7588.9523   -1663.2594   -391.37027   -248.29613    294.32609 
  289000       289000    300.82395    89584.282    7569.7026     0.979621   -779.45301    2582.2717    7560.1397     7425.629    7723.3392   -1464.5278    -552.7492    482.54614    300.82395 
  290000       290000    286.65524    89584.282    7624.6323     0.979621   -845.55379    2357.8348    7147.5058    7959.7848    7766.6063   -1286.3283     320.7396    280.07697    286.65524 
  291000       291000    299.43579    89584.282    8217.8477     0.979621    -805.1827    2541.0293    8292.1194    8010.5435    8350.8802   -788.09081    69.420757    395.15622    299.43579 
  292000       292000      290.099    89584.282    7475.0793     0.979621   -799.22791    2442.6449     6823.178    7595.1384    8006.9214   -1667.4208    -1036.169     1080.065      290.099 
  293000       293000    294.90359    89584.282    7079.5029     0.979621    -831.1037    2464.4607    6410.0226    8025.3488    6803.1373   -1254.7314    444.58114   -1125.1943    294.90359 
  294000       294000    297.51625    89584.282    7070.3185     0.979621   -783.53783    2541.2232    7334.4885    7219.5337    6656.9333   -1795.2357    422.34037    556.82999    297.51625 
  295000       295000    296.75469    89584.282    7675.5621     0.979621   -882.62853     2433.622    8125.7202    7166.0574    7734.9086   -559.23253    391.80763    644.77514    296.75469 
  296000       296000    294.03605    89584.282    6598.6989     0.979621   -890.03588    2395.8337    6161.4699    7071.2248    6563.4021   -1404.8183   -490.96219    -658.3393    294.03605 
  297000       297000    293.49551    89584.282    7108.5581     0.979621   -760.80488    2519.0241    7450.6763    6557.6652    7317.3329    -1170.315   -341.29899   -304.89915    293.49551 
  298000       298000    290.94162    89584.282    7132.9075     0.979621   -817.63717     2433.652     7325.447    7699.3364     6373.939   -1485.6603   -277.65821   -238.14386    290.94162 
  299000       299000    292.17477    89584.282    8002.8707     0.979621   -698.04638    2567.0233    7751.6789    8974.1956    7282.7376   -1077.5473    1021.2757   -756.07996    292.17477 
  300000       300000    292.11397    89584.282    7425.6671     0.979621   -803.78504    2460.6052    7144.1595    8660.1679    6472.6738   -1100.2819    146.87495    529.10929    292.11397 
  301000       301000     293.6665    89584.282     7060.286     0.979621    -786.0391    2495.7008    6722.7663    7221.7519    7236.3397    -1698.467   -66.760382    366.79888     293.6665 
  302000       302000    287.72166    89584.282    7096.2164     0.979621   -753.36021    2461.9457    6433.8377    7299.6593    7555.1522   -1227.4716   -1672.0872    524.72583    287.72166 
  303000       303000    297.10327    89584.282    7040.6432     0.979621   -870.08915    2450.0568    7250.5809    7310.0737     6561.275   -817.49118   -506.21048   -340.45184    297.10327 
  304000       304000     290.0732    89584.282    6916.6525     0.979621   -784.92795    2456.6565    7081.2456    7274.6806    6394.0313   -475.69385    1292.2299    551.05444     290.0732 
  305000       305000    293.53723    89584.282    7701.6487     0.979621   -831.71809    2448.5771    7190.3645    8031.6519    7882.9296   -1672.7166   -153.94303   -853.89662    293.53723 
  306000       306000    298.19031    89584.282    7409.7407     0.979621   -798.44373    2533.8499    7142.2755    8881.8079    6205.1386     -333.485   -54.508224   -432.62272    298.19031 
  307000       307000    290.45282    89584.282    7737.8184     0.979621   -865.56964    2380.2571    6984.2815    7594.1195    8635.0542   -1211.2109   -261.19717    593.53949    290.45282 
  308000       308000    292.64615    89584.282    7252.6916     0.979621    -826.9866    2443.3508    7794.7868    7468.4856    6494.8024   -1223.5446     67.17472    635.63248    292.64615 
  309000       309000    296.47298    89584.282    7826.8184     0.979621   -812.35455    2500.7479    6833.1679    8856.5178    7790.7695    -1186.461   -1031.0554   -510.67325    296.47298 
  310000       310000    294.17514    89584.282    6295.7187     0.979621   -793.24646    2494.1774    6860.5133    6467.0094    5559.6334   -2273.1885    521.19871    40.798728    294.17514 
  311000       311000    288.90155    89584.282    7371.6003     0.979621   -845.51692    2382.9743    7358.8391    7445.1914    7310.7703   -1253.8137    480.95954    169.92979    288.90155 
  312000       312000     291.0074    89584.282    7759.0112     0.979621   -814.40272    2437.6216    7011.4684     8675.963    7589.6022   -1252.6985   -1179.4231    -708.8413     291.0074 
  313000       313000    287.35929    89584.282    7389.4495     0.979621   -833.37278    2377.8836    6226.7416    8443.7933    7497.8135   -114.67959    360.75336    532.80008    287.35929 
  314000       314000    294.12335    89584.282    7105.6179     0.979621   -859.26633    2427.5788     7379.345    7277.5933    6659.9154   -1561.2636    238.30675    79.110725    294.12335 
  315000       315000    290.48374    89584.282    6532.7991     0.979621   -833.11606    2413.0562    7257.9705    6095.4448    6244.9818   -1407.6542   -338.92325    1008.1056    290.48374 
  316000       316000    291.95887    89584.282    6669.2995     0.979621    -875.8735    2386.7835     6500.405    7003.6108    6503.8828    -950.0693   -549.91477    536.60493    291.95887 
  317000       317000    293.48909    89584.282    7751.6034     0.979621   -827.15055    2452.6067    7904.0156    8085.9096     7264.885   -274.07843    776.53965   -603.96085    293.48909 
  318000       318000    291.55222    89584.282    6468.8974     0.979621   -916.19006    2341.9226    7034.3995    7424.2774    4948.0151   -1352.3114    134.70216    365.41688    291.55222 
  319000       319000    301.21403    89584.282    7506.7108     0.979621   -824.59441    2541.4895    7573.9994    7862.9129      7083.22   -1390.6963    343.65396    553.66662    301.21403 
  320000       320000    295.32657    89584.282     7566.391     0.979621   -835.20962    2465.0816    8415.6188     8158.526    6125.0283   -608.09597    131.31467   -378.39426    295.32657 
  321000       321000    292.12231    89584.282    6613.8875     0.979621    -866.9434      2397.54    6969.1679    6818.2111    6054.2835   -1388.6921    315.04274    531.11428    292.12231 
  322000       322000    293.53241    89584.282    6726.2671     0.979621   -849.68364    2430.5577    6525.5171    7175.5991    6477.6851   -1682.2531    221.95059    157.73733    293.53241 
  323000       323000     295.5245    89584.282    6875.1246     0.979621   -884.05069    2418.4524    6239.1468    7052.8795    7333.3476   -997.54438    -460.7002   -305.45888     295.5245 
  324000       324000    291.73832    89584.282    6720.5269     0.979621    -826.0859    2434.1065    7044.5342    5911.4365    7205.6099    -1681.506    769.50363    55.351349    291.73832 
  325000       325000    293.11099    89584.282    7778.8893     0.979621   -871.99818    2403.5339    7716.5562    7925.0434    7695.0683    -1616.242    176.80764    602.59738    293.11099 
  326000       326000    292.02784    89584.282    7506.4075     0.979621   -824.96075    2438.4669    6351.8089    7916.5531    8250.8605   -1441.7973   -137.87037    -52.39079    292.02784 
  327000       327000    295.70557    89584.282    7314.4633     0.979621   -922.34452     2382.182    7177.2293    7166.7156    7599.4451   -1433.6714    108.60787    718.88752    295.70557 
  328000       328000    289.32394    89584.282    8225.1615     0.979621   -854.90745    2378.3041    7975.9356     8992.666    7706.8831   -610.36659   -928.23722    159.66488    289.32394 
  329000       329000    294.87194    89584.282    6462.5802     0.979621   -886.21854    2408.9922     6197.978    7428.8958    5760.8667   -1028.3407    293.44087    702.87313    294.87194 
  330000       330000    293.20757    89584.282      6456.31     0.979621   -833.35026     2443.261    6707.8836    6213.6424     6447.404   -1631.9549    199.97237    305.00134    293.20757 
  331000       331000    288.78669    89584.282    7366.0993     0.979621   -889.24438    2337.9633    6803.7414    8099.2093    7195.3474   -1633.7651    241.96893    112.14565    288.78669 
  332000       332000    299.69813    89584.282    6843.1641     0.979621   -828.85025    2520.2934    6650.8241    7680.9224    6197.7459   -1355.2857    290.52576    597.65968    299.69813 
  333000       333000    287.77107    89584.282    7258.8955     0.979621   -875.54038    2340.3177    6636.2583    8549.3872    6591.0411   -1756.1569    189.26523    646.60456    287.77107 
  334000       334000    300.52499    89584.282    7418.6138     0.979621   -862.60283     2495.781     6629.977    8114.8895    7510.9748   -1319.1747    -54.53593    551.74974    300.52499 
  335000       335000    295.82834    89584.282    7258.5993     0.979621   -963.90719    2341.9913    7299.8554    7265.4693    7210.4733   -1416.5372   -560.51673    101.82943    295.82834 
  336000       336000    296.49801    89584.282     7649.731     0.979621   -859.06253    2454.3196    7790.2516    7332.6464    7826.2951   -1793.6222    29.454842   -603.14925    296.49801 
  337000       337000    297.90165    89584.282    7742.0229     0.979621   -881.36338    2447.7045    7988.1521    7427.7721    7810.1445   -1291.5415    8.5182714    446.61379    297.90165 
  338000       338000    291.72208    89584.282    7949.4744     0.979621   -826.87133    2433.1395    8787.9989    7049.5067    8010.9176   -1952.2881   -1119.2444    256.85727    291.72208 
  339000       339000    288.03163    89584.282     6944.781     0.979621   -873.94048    2344.8294    6601.1752    7254.5268    6978.6409   -2369.0341   -379.27115     211.2848    288.03163 
  340000       340000     294.1114    89584.282    7254.8732     0.979621   -749.17794    2537.5337    7364.9387    7470.3638     6929.317    -1031.699    -587.0506    162.03382     294.1114 
  341000       341000     293.4189    89584.282    7642.8852     0.979621   -857.84766    2421.1252    7355.6734    8438.6595    7134.3226   -1989.1029    -248.8057    298.25814     293.4189 
  342000       342000    296.05314    89584.282    7043.1983     0.979621   -764.03568     2544.375    7668.1011    6200.2891    7261.2047   -1801.2396    110.05522    496.49524    296.05314 
  343000       343000    283.82357    89584.282    6794.6936     0.979621   -810.02107    2361.7235    7263.8208    7157.3148    5962.9451   -1578.6769   -40.031141   -352.14458    283.82357 
  344000       344000    290.19146    89584.282    7020.8382     0.979621   -802.18883    2440.7172    6868.2493    7417.8006    6776.4647    -1939.821    577.39354    1592.7992    290.19146 
  345000       345000    293.56471    89584.282    7012.8116     0.979621   -852.48014    2428.1222    6530.6153    6522.4528    7985.3668   -2083.9001   -744.78622   -15.319404    293.56471 
  346000       346000    287.86521    89584.282    6632.8065     0.979621   -825.04968    2391.8604    6377.2753    6717.0122     6804.132   -1878.9273    807.26237   -85.876905    287.86521 
  347000       347000    294.37097    89584.282    6690.3226     0.979621   -810.78144    2478.8309    6092.9928    6987.5499     6990.425   -1658.2372    328.48981   -559.95896    294.37097 
  348000       348000    293.08702    89584.282    7720.2072     0.979621   -779.35617    2495.9079    7169.6987    8031.6382    7959.2848   -1561.4027    345.71045    68.552852    293.08702 
  349000       349000    284.12932    89584.282    7978.6226     0.979621   -760.66277    2414.4985    7741.4011    8462.3022    7732.1644   -1094.0164    503.86561   -227.89889    284.12932 
  350000       350000    299.31979    89584.282    8255.5071     0.979621   -823.78317    2521.1325    7372.4174    7739.2812    9654.8227   -1680.4166   -89.941885    -797.6431    299.31979 
  351000       351000    289.74311    89584.282    6482.3388     0.979621   -792.67086    2445.2249    5887.3456    7617.7528    5941.9181   -1398.2749   -405.94077   -58.317208    289.74311 
  352000       352000    288.77718    89584.282    7261.6314     0.979621   -900.09054    2327.0108    8716.8075    6727.8479     6340.239   -1523.0294    769.74399    743.49913    288.77718 
  353000       353000    294.93442    89584.282    7855.2095     0.979621   -749.71489     2546.194    7991.9542    7815.3466    7758.3276   -1876.4897   -188.03624   -475.07627    294.93442 
  354000       354000    290.70642    89584.282     7707.895     0.979621   -897.35365    2351.3071    7935.9073    8170.4717    7017.3059   -707.72781   -351.89464   -71.279902    290.70642 
  355000       355000    293.68807    89584.282    6620.5639     0.979621   -790.98208    2490.9988    6861.0862     6870.522    6130.0836    -1951.636    1022.6073    676.58032    293.68807 
  356000       356000    293.87788    89584.282    7723.8192     0.979621   -829.56363    2454.5384    8392.7063    7182.9925    7595.7588   -1896.1667    1338.1696    212.11883    293.87788 
  357000       357000    296.95198    89584.282    7454.3617     0.979621   -782.55339    2535.9019    6750.7244    8364.6701    7247.6907   -662.66694    493.59026    30.731424    296.95198 
  358000       358000     291.1258    89584.282    7176.4674     0.979621   -779.72134     2473.626    7199.1183    6937.1804    7393.1035   -1499.0545    192.80203   -148.67243     291.1258 
  359000       359000    287.19442    89584.282    7715.5031     0.979621   -861.31491     2348.099    7225.2076    8926.3181    6994.9836   -2093.2062   -100.90052   -72.722513    287.19442 
  360000       360000    302.44145    89584.282     8669.155     0.979621   -790.40174    2589.3987    9204.7819     8442.569     8360.114    -638.0455    57.170543    72.493962    302.44145 
  361000       361000    287.64625    89584.282     7077.057     0.979621   -819.40186    2395.0613    6090.4497    7958.5823     7182.139   -2009.6508    118.02027    406.16218    287.64625 
  362000       362000    290.22705    89584.282     7128.873     0.979621    -763.1124    2480.1914    6887.8285    7426.8337    7071.9569   -1618.5056   -590.34991    168.08684    290.22705 
  363000       363000    293.34037    89584.282    7269.9017     0.979621   -826.10287    2451.9925    7196.1332    7502.6981    7110.8738   -2343.8884    98.763773    200.79133    293.34037 
  364000       364000    290.68025    89584.282    7761.4313     0.979621    -808.6795    2439.6889    8180.5156    8152.3236    6951.4546   -1336.0513   -333.43028    32.898033    290.68025 
  365000       365000    289.48983    89584.282    7969.8827     0.979621   -755.69209    2479.3732    8082.2302    8042.4291    7784.9888   -198.71658    651.85808    12.496506    289.48983 
  366000       366000    288.55852    89584.282    7688.0694     0.979621   -853.20395    2371.4539    7163.7766    8266.6067    7633.8249   -1157.8299     39.07645    614.31285    288.55852 
  367000       367000    292.82472    89584.282    7850.8513     0.979621   -758.58851    2513.7444    8187.2911    7860.7092    7504.5538   -531.68119   -207.14818     408.1022    292.82472 
  368000       368000    289.50006    89584.282    7447.4142     0.979621   -917.64583    2317.5339    7356.4285    7284.9644    7700.8497   -1905.0006    140.37348    297.25478    289.50006 
  369000       369000    293.44516    89584.282    8452.4654     0.979621   -746.74721    2532.5191    8288.7494    8382.8818    8685.7652   -1142.6917   -394.27975   -45.565787    293.44516 
  370000       370000    287.36541    89584.282    6894.7767     0.979621   -868.18755    2343.1372    6359.2006    6980.9205     7344.209   -2175.6438    -154.7898   -103.04276    287.36541 
  371000       371000    296.62396    89584.282     7085.408     0.979621   -730.58857     2584.201    7564.4618    7409.8524    6281.9099   -2215.3819   -249.29869    97.657878    296.62396 
  372000       372000    299.16571    89584.282    7012.8898     0.979621   -851.10098    2492.0928    7218.1343    6652.8554    7167.6799   -1780.4895    37.442661    336.73993    299.16571 
  373000       373000    289.07335    89584.282    8153.9104     0.979621   -892.66404    2337.7471    7890.2248    7965.2511    8606.2553   -1136.4814   -96.518412    933.22781    289.07335 
  374000       374000    296.43398    89584.282    7561.6755     0.979621   -758.86924    2553.7974    7716.8061    7659.8567    7308.3639   -1132.0178   -418.50882    234.53673    296.43398 
  375000       375000    291.83302    89584.282    7412.1682     0.979621   -864.73907    2396.5115     6302.113    7815.7158    8118.6758   -1365.4808   -169.00133   -500.04321    291.83302 
  376000       376000    294.79229    89584.282     7532.295     0.979621   -736.34512    2557.9755    7329.9661    7140.9212    8125.9978    -1842.082   -586.53219    373.96972    294.79229 
  377000       377000    293.90193    89584.282    7660.7503     0.979621   -908.08176     2376.289    7341.1095    7716.0016    7925.1397   -831.17545    82.343476    459.50881    293.90193 
  378000       378000    295.82855    89584.282    7968.1383     0.979621   -733.02529    2572.8756    8047.4824    8574.8335     7282.099   -1847.8548    551.59163   -261.86192    295.82855 
  379000       379000    294.62035    89584.282    7108.6175     0.979621   -783.67225    2508.7269    6993.8948    7116.1833    7215.7743   -1818.9809    11.345095   -1129.1576    294.62035 
  380000       380000    290.29071    89584.282    7762.4119     0.979621   -855.88572    2388.1294    6680.3482    8359.8888    8246.9987   -1198.3473   -43.314293    493.43195    290.29071 
  381000       381000    296.76795    89584.282    8046.2504     0.979621   -756.59883    2559.7999    6807.7348     8209.923    9121.0933   -1307.0938    642.66693    111.51311    296.76795 
  382000       382000    289.82443    89584.282    6378.7562     0.979621   -763.54417    2475.2604    5398.7175    6939.9264    6797.6246   -1786.5911   -335.26327    430.04634    289.82443 
  383000       383000    286.17192    89584.282    6857.2154     0.979621   -755.87628    2442.1112    7790.1944    6021.9783    6759.4736   -1383.3092   -70.740679   -199.75919    286.17192 
  384000       384000    300.71856    89584.282    7200.2234     0.979621   -776.47239    2584.0747    6664.6073    7986.5181    6949.5448   -614.42362   -345.67598   -325.35445    300.71856 
  385000       385000    291.64412    89584.282    7363.4753     0.979621   -875.53247    2383.6071    7785.8329    6657.2124    7647.3807   -1791.0144    513.57305    174.14909    291.64412 
  386000       386000    301.66072    89584.282     8258.375     0.979621   -835.36737    2535.7083    8071.1633    9259.0444    7444.9173   -925.38649   -37.833985    222.93485    301.66072 
  387000       387000    289.68097    89584.282    7772.7713     0.979621   -831.60468    2405.5967    7324.4918    8430.5524    7563.2697   -1301.7852    340.49774    157.33956    289.68097 
  388000       388000    288.87058    89584.282    6696.5297     0.979621   -793.05701    2435.0881    6345.8344    6230.8037    7512.9511   -1145.3689    -731.8531    230.55286    288.87058 
  389000       389000    291.60141    89584.282    7245.5475     0.979621   -828.81352    2429.8489    6294.5754    7792.0758    7649.9915   -1137.8199   -146.05692   -200.46323    291.60141 
  390000       390000    292.83783    89584.282    8108.4044     0.979621    -760.6065    2511.8729    7817.8277    8670.1963    7837.1891   -966.30915    281.24085   -115.43124    292.83783 
  391000       391000    298.12917    89584.282    8057.9135     0.979621   -812.90052    2518.7099    6996.8409    8627.9434    8548.9561   -578.81105    414.12503    -1125.178    298.12917 
  392000       392000    291.71339    89584.282    6843.0349     0.979621   -774.23851    2485.6752    7055.4253    6992.6249    6481.0543   -1326.8468   -286.03253   -52.248833    291.71339 
  393000       393000    290.16334    89584.282    6833.6086     0.979621   -794.41258    2448.1793    6510.9824    6741.1269    7248.7165   -1293.9928    873.05484   -76.583817    290.16334 
  394000       394000    290.10512    89584.282    7249.1012     0.979621   -746.25621     2495.685     7949.405     6470.032    7327.8665   -1366.2006   -978.31751   -478.06543    290.10512 
  395000       395000    296.01968    89584.282    7551.9987     0.979621   -792.95694    2515.0798    7649.1437     7422.879    7583.9734   -1761.2439    182.40937    36.056058    296.01968 
  396000       396000    295.21692    89584.282    8113.6258     0.979621   -838.06966    2460.9962    7061.6202    8487.8275    8791.4296   -1810.1996   -291.70973   -372.02746    295.21692 
  397000       397000    288.82051    89584.282    6790.0708     0.979621    -763.4611    2464.1245    5951.5287    7284.5006    7134.1832   -2009.0562   -396.13349   -733.03971    288.82051 
  398000       398000    291.15602    89584.282    8071.8149     0.979621   -768.13323    2485.5519    7835.6262    7523.9814    8855.8372   -1068.7218    254.37713    985.26326    291.15602 
  399000       399000    295.56138    89584.282    7596.0711     0.979621   -799.42953    2503.4857    6620.4913    8039.5804    8128.1417   -1547.7659   -1135.7082   -596.71103    295.56138 
  400000       400000    288.97242    89584.282    6957.2553     0.979621   -783.12111    2446.1621    7776.6291    5932.2713    7162.8655   -1006.2244    186.82943   -246.80105    288.97242 
  401000       401000     289.3167    89584.282    7733.8878     0.979621    -757.4345    2475.6961    8524.8579    7105.8428    7570.9627   -729.76425    57.588962   -77.927393     289.3167 
  402000       402000    295.70336    89584.282    6783.7556     0.979621   -734.26794    2570.2339    7483.5832    7022.9022    5844.7813   -1846.1475   -1162.9505    614.06938    295.70336 
  403000       403000    290.02487    89584.282    6891.6045     0.979621   -763.68545     2477.359    7118.1026    6656.5937     6900.117   -1369.7859     269.0746    345.08623    290.02487 
  404000       404000    298.12213    89584.282    7921.5595     0.979621   -762.16987    2569.3618    7936.6543    7728.3841    8099.6401    -1712.769   -681.08216    10.017962    298.12213 
  405000       405000     288.0346    89584.282    7747.0707     0.979621   -781.98962    2436.8134    7454.8096    8119.8991    7666.5034   -1846.3386    -233.7899    185.96029     288.0346 
  406000       406000    288.19959    89584.282    7431.0604     0.979621   -756.38085     2464.266    7537.6847    7250.0672    7505.4292   -1324.1566   -248.28135    554.31503    288.19959 
  407000       407000    289.70889    89584.282    7039.3427     0.979621    -765.9623    2471.5511    6466.8016    7166.2406     7484.986   -1368.1975   -254.61593    599.00216    289.70889 
  408000       408000    299.39696    89584.282    7287.8254     0.979621   -814.16026    2531.6178    8450.8629    5797.3099    7615.3032    -1127.752   -60.923445   -305.45363    299.39696 
  409000       409000     289.6121    89584.282    7141.2005     0.979621    -812.8023    2423.6294    6541.0526    7828.8325    7053.7163   -1313.0572   -77.771163    283.32307     289.6121 
  410000       410000    289.27235    89584.282    7601.7158     0.979621   -739.34688    2493.2881    8149.5124     7301.596    7354.0388    -2123.023    111.91256   -522.57031    289.27235 
[...]
100080000   1.0008e+08    290.27094    89584.282    7192.2721     0.979621   -852.02926    2391.7649    6139.0153    7207.4664    8230.3346   -1325.0404   -380.96334    197.22169    290.31931 
100090000   1.0009e+08    291.81526    89584.282    8061.1498     0.979621   -915.77493    2345.2772    7226.8885    9153.4119    7803.1489   -683.00585    275.94996   -251.21319    291.84858 
100100000    1.001e+08    285.01256    89584.282    7056.6913     0.979621    -762.1637    2422.8679    6180.6455    7281.9942    7707.4341   -1137.1998    415.09832   -232.58415    285.04654 
100110000   1.0011e+08     291.1884    89584.282    7418.2915     0.979621   -854.05671    2399.9902    6517.1977    8000.0009    7737.6758   -1205.4815   -40.570165    943.22945    291.20908 
100120000   1.0012e+08    289.45156    89584.282    6543.5909     0.979621   -850.78967     2383.848    5898.1895    6678.8755    7053.7078   -1283.5786    558.93549     243.3588     289.4632 
100130000   1.0013e+08    296.88956    89584.282    6211.6224     0.979621     -825.495    2492.2627    4800.2055    7073.1679    6761.4938   -1508.3149    530.98014    394.14886    296.86103 
100140000   1.0014e+08    291.02868    89584.282    6579.7426     0.979621   -846.38266    2405.8794    6218.7335    7567.7788    5952.7156   -990.38878    369.26629   -2.3825907    291.06886 
100150000   1.0015e+08    295.06825    89584.282    7222.1682     0.979621   -879.24778    2418.1567    6573.1559    8077.7481    7015.6005   -897.42659    947.66297   -25.681609    295.09248 
100160000   1.0016e+08    289.24558    89584.282    7631.1265     0.979621   -859.25767    2373.0781    6536.6944    8185.8772     8170.808   -1330.5276   -221.23035   -429.88219    289.25696 
100170000   1.0017e+08    297.53869    89584.282    7558.2844     0.979621   -795.66786     2529.344      7855.66    7653.8134    7165.3799   -1151.6632    278.49784    359.21282    297.54149 
100180000   1.0018e+08    292.48257    89584.282    6564.7499     0.979621   -775.83135     2492.678    5592.4696    7077.7364    7024.0437   -811.64047   -466.10663    137.91397    292.49771 
100190000   1.0019e+08    287.98546    89584.282    7177.0033     0.979621   -776.60175    2441.6521    5898.4313    7642.5622    7990.0164    -1638.754   -113.99995    557.28295    287.98843 
100200000    1.002e+08    292.89353    89584.282    7251.9012     0.979621   -837.34221    2435.7597    6873.5602    7856.8247    7025.3187   -1547.0565    130.07246    552.69413    292.92148 
100210000   1.0021e+08    292.80062    89584.282    7261.4974     0.979621   -782.34144    2489.7222    6397.3779    7577.8306    7809.2836   -1290.6808   -550.15233    427.60532    292.83116 
100220000   1.0022e+08     292.5025    89584.282     6794.628     0.979621   -799.72896    2469.0031     6682.885    6638.2682    7062.7307   -1135.7237   -1010.5223   -42.695226    292.55418 
100230000   1.0023e+08    291.98843    89584.282    6732.6733     0.979621   -693.99829     2568.989    5396.8189    7664.0834    7137.1176   -953.32605   -118.72132    24.599799    291.99769 
100240000   1.0024e+08     294.1967    89584.282    6778.5116     0.979621   -739.96387     2547.701    5319.9118    8212.8106    6802.8123   -801.51793    235.05642   -214.55993    294.25126 
100250000   1.0025e+08    290.50113    89584.282    7066.8119     0.979621   -814.16668       2432.2    5956.2861    7877.6918    7366.4579   -1365.6075    10.048375    588.50293    290.50947 
100260000   1.0026e+08    289.97793    89584.282    7852.2934     0.979621     -781.505    2459.0149    8506.9844    7427.4532    7622.4426   -1910.9588   -172.69057    374.61974    289.95385 
100270000   1.0027e+08    296.30346    89584.282    7414.5893     0.979621   -830.28185    2480.9261     6178.329    8105.0436    7960.3954   -1376.6759    -436.4598     506.3876     296.3088 
100280000   1.0028e+08    290.22541    89584.282    7842.7379     0.979621   -761.36458    2481.9209    7279.9858    8293.8533    7954.3744   -1048.4813    -146.1247   -138.75654    290.23977 
100290000   1.0029e+08    289.13171    89584.282    6685.2589     0.979621   -784.85567    2446.2076    5140.9165    7746.1995    7168.6606   -1412.9495   -115.76252    490.36489    289.14428 
100300000    1.003e+08    291.67039    89584.282    7270.5738     0.979621   -831.23563    2428.1975     6802.238    8675.3473    6334.1362   -972.23904   -537.91369    111.98501    291.70499 
100310000   1.0031e+08    289.46946    89584.282    7667.1638     0.979621   -819.63678     2415.201     7148.026    8215.5088    7637.9567    -1738.486   -56.187757   -269.86387    289.49847 
100320000   1.0032e+08    300.80876    89584.282    7419.5391     0.979621   -867.70012    2493.8549    6728.7005     8008.527    7521.3899   -432.69283    60.752453    418.27002    300.85972 
100330000   1.0033e+08    291.56679    89584.282    6341.9091     0.979621   -735.73699    2522.5385    4727.6549    7861.9482    6436.1242   -749.83499    475.98135   -500.35551    291.56818 
100340000   1.0034e+08     294.6885    89584.282    7108.0845     0.979621    -822.9007    2470.2601    6703.5913    7392.2807    7228.3815   -1140.7669   -182.05857    123.10324    294.68474 
100350000   1.0035e+08    289.16518    89584.282    7359.3774     0.979621   -847.23992    2384.1974    6260.7048    7679.9039    8137.5235    -1365.386    163.74653     236.3434    289.21765 
100360000   1.0036e+08    292.39777    89584.282    7614.7402     0.979621   -799.89071     2467.671    6557.3696    8651.6092    7635.2419   -2048.4367   -399.21007    961.51034    292.39852 
100370000   1.0037e+08     285.3723    89584.282    7162.2601     0.979621   -860.70114    2328.3506    6848.3585    6932.5537    7705.8681   -1197.8872    63.439605    194.83366    285.36915 
100380000   1.0038e+08    298.36691    89584.282      6531.25     0.979621   -858.41707    2475.8501    6573.4539     6896.816    6123.4802   -2026.4279   -16.874185   -215.78885    298.39508 
100390000   1.0039e+08     291.2717    89584.282    7197.2576     0.979621   -851.69509    2403.2828    6533.2219     7293.505    7765.0458    -560.8695   -596.73745    232.66504    291.31852 
100400000    1.004e+08    295.47607    89584.282     6861.629     0.979621   -817.42233    2484.5395      6437.18    7309.8171      6837.89   -1022.9784    -420.2484    202.22856    295.50086 
100410000   1.0041e+08    291.49227    89584.282    7261.4739     0.979621   -849.36921    2408.0734    5953.4061    7584.1413    8246.8743   -1572.2183   -120.02551    398.49726    291.53144 
100420000   1.0042e+08    291.21519    89584.282    6507.0234     0.979621   -827.35401    2426.9923    5905.7028    7434.4675    6180.8998   -1013.6083   -92.822491   -58.880028    291.24368 
100430000   1.0043e+08    294.40012    89584.282    7584.9575     0.979621   -776.07366    2513.8644    7318.5459    7720.4934    7715.8332   -1347.4483     282.7794   -526.31659    294.40342 
100440000   1.0044e+08    295.04654    89584.282    7295.9589     0.979621   -873.48592    2423.6759    6325.2519    7976.5098    7586.1149   -946.71805   -53.525779     58.02135    295.04266 
100450000   1.0045e+08     293.8168    89584.282    6262.5014     0.979621   -852.54108    2430.8783    5165.1318    6889.1317    6733.2407   -2193.5888   -49.340916    607.73623     293.7941 
100460000   1.0046e+08    294.03912    89584.282    7805.9364     0.979621   -777.93136    2507.9726     6511.228    8338.1614    8568.4198   -1312.1094    68.896148    369.74226    294.06231 
100470000   1.0047e+08    290.01072    89584.282    7248.6851     0.979621   -831.95943    2408.9268    8165.4225    6597.8902    6982.7425   -1091.7459   -360.58693    264.05172    290.01611 
100480000   1.0048e+08    291.17923    89584.282    6429.9543     0.979621   -816.45897    2437.4855    6655.7325    6362.3961    6271.7344   -1184.6667   -134.34769    747.28168     291.1865 
100490000   1.0049e+08    295.97047    89584.282    6817.4684     0.979621   -807.31468    2500.1721    6203.6029    7140.4274    7108.3749   -1124.4956    136.29406    317.48775    295.96516 
100500000    1.005e+08    292.60594    89584.282    7978.5338     0.979621   -846.16723    2423.7208    7932.5883    8495.1581    7507.8549   -2138.7936    238.76352     152.2483    292.62804 
100510000   1.0051e+08    296.54362    89584.282    6427.9981     0.979621   -788.88192    2525.0099     5080.061    7596.9902    6606.9432   -1745.2945   -527.74567   -182.96939    296.54596 
100520000   1.0052e+08    287.44429    89584.282    8390.5112     0.979621   -845.19011    2367.0162    8784.7349     8191.834    8194.9646   -890.61221   -114.20297    193.59537    287.48792 
100530000   1.0053e+08    291.48161    89584.282    7089.8665     0.979621   -867.35053     2389.973    6401.1507    6881.4869    7986.9619   -1154.2599   -36.614535   -219.91941    291.50311 
100540000   1.0054e+08    291.18886    89584.282    8298.3304     0.979621   -839.79133    2414.2607    7533.0913    9282.3519    8079.5479    -1286.627    355.38819   -352.25069    291.21712 
100550000   1.0055e+08    284.34866    89584.282    7296.5532     0.979621    -847.1146    2330.4978    6136.4749    8405.0612    7348.1236   -501.29562    345.58205    187.47334    284.36808 
100560000   1.0056e+08    290.46481    89584.282    7839.5268     0.979621   -778.72636    2467.2344    7444.4045    7762.7393    8311.4368   -849.02437   -434.72429    803.65357    290.48934 
100570000   1.0057e+08    286.00495    89584.282    7375.2388     0.979621   -850.30113    2345.8204    7208.0995    7209.3844    7708.2324   -1192.5403    -64.03953    153.97594    286.00577 
100580000   1.0058e+08    287.65833    89584.282    6956.8525     0.979621   -870.76158    2343.8366    7544.4304    6283.3282    7042.7988   -1884.3971   -694.77852   -334.17382    287.65029 
100590000   1.0059e+08    299.50395    89584.282    7054.2706     0.979621   -814.43722    2532.5364    5502.1827    7419.6149    8241.0141   -1408.4421    -914.5619   -100.52611    299.53927 
100600000    1.006e+08    294.51436    89584.282    7070.7577     0.979621   -758.77409    2532.4406    6409.6589    7685.7595    7116.8548   -1049.6893    241.04523   -513.48636    294.54554 
100610000   1.0061e+08    297.69669    89584.282    5838.6624     0.979621   -855.69034    2471.0872    5761.8049    6033.4767    5720.7055   -559.97639    -148.8703    1379.1055    297.69722 
100620000   1.0062e+08    292.38212    89584.282    7828.7466     0.979621   -807.45741    2459.9294    6885.0589    8413.9548    8187.2261   -1657.1357   -609.53423    105.80552    292.41447 
100630000   1.0063e+08    295.62782    89584.282    7408.8251     0.979621   -798.15097    2505.5068    6923.0492    7556.3197    7747.1065   -814.65655   -1025.4717    -60.07838    295.62582 
100640000   1.0064e+08    295.42313    89584.282    8420.0763     0.979621   -767.13528     2534.235    7616.3968    9222.4236    8421.4087   -686.84344   -971.86345    28.476395    295.43711 
100650000   1.0065e+08    287.70343    89584.282    7377.4413     0.979621   -719.02739    2496.0748     6543.594    7962.6471    7626.0827    -1193.621    186.44697    841.23856     287.7022 
100660000   1.0066e+08    290.74755    89584.282    8292.3436     0.979621   -747.95666    2501.1637    8330.1991    9283.5033    7263.3284    -762.7344    227.29571    671.69126    290.76212 
100670000   1.0067e+08    289.80267    89584.282    6849.3216     0.979621   -778.88443    2459.6769    6343.6543    7610.2736    6594.0368   -873.90571   -763.32687    275.24469    289.80045 
100680000   1.0068e+08    291.06817    89584.282    7402.2764     0.979621   -858.36285    2394.3405    6085.5669    9229.2113    6892.0511   -970.50829    565.20754   -603.90234     291.0964 
100690000   1.0069e+08    295.45185    89584.282    7354.5676     0.979621   -805.29705    2496.3942    6609.5661    7998.8668    7455.2699   -1149.8069   -87.820499   -788.68036    295.48946 
100700000    1.007e+08    291.36682    89584.282    7409.4501     0.979621   -794.49936    2461.5415    7422.2694    7660.7222    7145.3586   -1148.0553   -330.98053    201.37622    291.37998 
100710000   1.0071e+08    294.53337    89584.282    7262.5078     0.979621   -793.55308     2497.874    6401.8048    7636.0694    7749.6493   -924.95817   -160.42774   -59.228852    294.55973 
100720000   1.0072e+08    289.62621    89584.282    7116.1615     0.979621   -837.81171    2398.7776    7072.5269    7487.2897    6788.6679   -907.47173   -299.97749   -246.17464    289.63148 
100730000   1.0073e+08    291.53844    89584.282    6754.2277     0.979621   -877.19263     2380.766    5300.1368    7577.8206    7384.7257   -1583.0324     -450.455    672.96648    291.58988 
100740000   1.0074e+08    295.65747    89584.282    6755.8518     0.979621   -793.45293    2510.5362         5740    8195.5775     6331.978   -572.43339    -708.6997    -424.7281    295.65964 
100750000   1.0075e+08    290.66002    89584.282     7122.028     0.979621   -831.32046    2416.8218    7236.0418    6438.9456    7691.0965   -2006.3355      218.952   -1278.0416    290.69098 
100760000   1.0076e+08    289.47647    89584.282    6370.3003     0.979621   -825.20333    2409.7127    4847.1273    6814.5786    7449.1949   -957.00965   -469.46926   -487.39203    289.47326 
100770000   1.0077e+08    294.13629    89584.282    8679.4035     0.979621    -763.6856    2523.3042    8052.4651    9148.6709    8837.0746    640.12526   -29.001963    15.638351    294.13968 
100780000   1.0078e+08    290.20865    89584.282    8024.1269     0.979621   -878.62768    2364.4705    7640.5309    8471.2791    7960.5707    88.415087    -642.2262   -76.009597    290.24635 
100790000   1.0079e+08    284.52131    89584.282    7119.5959     0.979621   -808.28884     2371.253    5722.5182    8675.5185    6960.7508   -925.41357   -675.78268   -188.95782    284.53678 
100800000    1.008e+08     286.7866    89584.282    7557.1917     0.979621   -809.52866    2395.3279    6539.9094    7534.8545    8596.8111   -1856.8514   -1027.3396   -1008.2721    286.77827 
100810000   1.0081e+08    294.35266    89584.282    6803.4123     0.979621   -866.54706    2422.8607    5776.7122    8017.3759    6616.1488   -1714.2382    660.82542    94.797176    294.38065 
100820000   1.0082e+08    289.49466    89584.282    7701.0121     0.979621    -814.6463     2420.473    7919.2175    7441.7621    7742.0568   -1145.8922   -515.97651   -205.49295    289.49494 
100830000   1.0083e+08    293.59447    89584.282    7685.6525     0.979621   -798.94152    2481.9934    7117.8656    8102.9686    7836.1233   -1181.6641   -619.85738   -414.22068    293.62318 
100840000   1.0084e+08    292.76658    89584.282    7453.7869     0.979621   -794.60019    2477.0829    7332.3936    6970.5137    8058.4535    -780.5491   -451.99051   -309.52691    292.78238 
100850000   1.0085e+08    292.62789    89584.282    7149.0241     0.979621   -862.83747    2407.2958    7077.9037    7355.5665     7013.602   -1328.3579    160.98276   -350.15654    292.63191 
100860000   1.0086e+08    290.95665    89584.282    7742.0223     0.979621   -853.03043    2398.4266    7441.8525    8161.0005    7623.2141   -842.52401   -502.88859   -209.48055    290.99663 
100870000   1.0087e+08    290.24031    89584.282     7858.547     0.979621   -833.44179    2410.0102    8048.1831    7573.1032    7954.3548   -1687.0172   -212.24467   -542.22189    290.25193 
100880000   1.0088e+08    292.56918    89584.282    7246.5242     0.979621   -696.50196    2572.9753    6636.2447    8080.9322    7022.3959   -985.19293    75.297643   -577.18172    292.62765 
100890000   1.0089e+08     293.5892    89584.282    7753.6496     0.979621   -800.61478    2480.2612    7575.3904    7943.7228    7741.8356   -658.83602   -24.291203    98.966346     293.5876 
100900000    1.009e+08    299.20712    89584.282    7962.4922     0.979621   -833.72844    2509.9282    7821.6631    8026.9582    8038.8552   -1020.1771   -104.77144   -67.867055    299.23475 
100910000   1.0091e+08     293.6394    89584.282    8577.7571     0.979621   -860.49853    2420.9385    7881.4119    9232.6479    8619.2115   -587.61956   -87.363062    173.21648    293.71406 
1009200Generated thermo.dat
Done!
stress
average  1102.8
square average  1.21761*10^06
number of blocks  100
variance  3.79757817562719832944
pxx
average  6525.86
square average  4.25945*10^07
number of blocks  100
variance  8.74714833531477274444
pyy
average  7803.71
square average  6.09011*10^07
number of blocks  100
variance  5.66589436894123538865
pzz
average  7413.76
square average  5.49672*10^07
number of blocks  100
variance  5.79884678190413994663
xx
average  2180.73
square average  4.75559*10^06
number of blocks  100
variance  .25820728107472105132
yy
average  2184.7
square average  4.77293*10^06
number of blocks  100
variance  .39887341350358261249
zz
average  2183.16
square average  4.76618*10^06
number of blocks  100
variance  .27541967976163213889
xx
average  4856.72
square average  2.35954*10^07
number of blocks  100
variance  8.75833408816996430063
yy
average  6131.53
square average  3.75988*10^07
number of blocks  100
variance  5.60344456562211383495
zz
average  5742.76
square average  3.29826*10^07
number of blocks  100
variance  5.75115849199098320241
pressure, stress.strain, ktensor, virial are all concatenated
averages computed will all accumulated data until now
00   1.0092e+08    283.04118    89584.282    7222.0278     0.979621   -808.20175    2354.7996    6939.8861    8410.7323     6315.465   -1236.0758    178.31689    869.83363    283.06157 
100930000   1.0093e+08    295.00564    89584.282    7592.3387     0.979621   -815.80387     2480.901    6613.1175    8335.3593    7828.5392   -799.77752    211.22208    312.77918    295.06025 
100940000   1.0094e+08    280.25132    89584.282    6783.3127     0.979621   -836.18433    2295.6401    5930.4671    7661.8462    6757.6249   -1276.8125    231.87952   -184.28925    280.26951 
100950000   1.0095e+08    293.46093    89584.282    6606.4466     0.979621   -794.68745    2484.7552    6287.4288    7170.8906    6361.0204   -1676.1437    178.16994   -196.98017    293.46026 
100960000   1.0096e+08    290.26414    89584.282    6405.9252     0.979621   -780.54748    2463.1708    5760.5772    7401.4538    6055.7445   -1257.1702    522.59002    668.19323    290.27683 
100970000   1.0097e+08    290.01675    89584.282    7450.6237     0.979621   -804.93146    2436.0222    6864.5048    8287.2915    7200.0749   -592.11209    -1231.309   -189.11044    290.03491 
100980000   1.0098e+08    287.95731    89584.282    6763.7776     0.979621    -784.8535    2433.0858    6824.0602    7801.5499    5665.7227   -908.12638    155.62485   -250.70551     287.9487 
100990000   1.0099e+08    294.48409    89584.282    7874.5372     0.979621   -843.03949     2447.837    7796.9444    7716.2411     8110.426   -1003.2391   -375.02987    -405.0787    294.49152 
101000000     1.01e+08    292.30644    89584.282    8509.8498     0.979621   -805.79074    2460.7503    8612.0565    8726.2543    8191.2387   -1019.7976   -396.79861   -407.95093    292.32607 
Loop time of 15449.9 on 48 procs for 50000000 steps with 3750 atoms

Pair  time (%) = 5706.96 (36.9384)
Bond  time (%) = 1021.13 (6.60929)
Neigh time (%) = 2972.81 (19.2416)
Comm  time (%) = 4129.14 (26.7259)
Outpt time (%) = 0.50028 (0.00323807)
Other time (%) = 1619.4 (10.4816)

Nlocal:    78.125 ave 93 max 66 min
Histogram: 2 3 3 7 15 9 7 1 0 1
Nghost:    1420.54 ave 1459 max 1399 min
Histogram: 6 7 9 9 4 6 2 2 1 2
Neighs:    7234.85 ave 8597 max 6108 min
Histogram: 2 4 4 7 11 12 4 2 1 1

Total # of neighbors = 347273
Ave neighs/atom = 92.6061
Ave special neighs/atom = 6.26667
Neighbor list builds = 5603082
Dangerous builds = 0
System init for write_restart ...

real	520m5.088s
user	0m0.075s
sys	0m0.169s
