LAMMPS (7 Aug 2019)
OMP_NUM_THREADS environment is not set. Defaulting to 1 thread. (src/comm.cpp:93)
  using 1 OpenMP thread(s) per MPI task
# THIS IS A LAMMPS FILE TO GENERATE STAR UNDER AMBIENT CONIDTIONS
# phase 2: deforming to adjust density to desired (often close to experimental) value

#molecule       	STAR infiles/UA.MG.STAR.txt
#atom_style     	template STAR

atom_style	molecular

variable	scalefactor equal 1.003023956

variable       	Nmol equal 125
variable       	eqmT equal 311
variable       	eqmP equal 0.987	# in atm; note 0.1MPa = 0.987 atm
variable       	Pout equal 0.1		# in MPa

variable        pxx equal pxx
variable        pyy equal pyy
variable        pzz equal pzz
variable        pxy equal pxy
variable        pxz equal pxz
variable        pyz equal pyz
variable	a equal cella
variable 	b equal cellb
variable 	c equal cellc
variable 	rho equal density
variable 	vol equal vol
variable 	etotal equal etotal

read_restart	restart_files/star.gphase1.*	# note that this sample was produced in phase 1
WARNING: Restart file used different # of processors (src/read_restart.cpp:738)
  restoring atom style molecular from restart
  triclinic box = (112.455 112.455 112.455) to (157.545 157.545 157.545) with tilt (0 0 0)
  4 by 6 by 8 MPI processor grid
  restoring pair style lj/cut from restart
  restoring bond style harmonic from restart
  restoring angle style harmonic from restart
  restoring dihedral style multi/harmonic from restart
  restoring improper style harmonic from restart
  3125 atoms
  3000 bonds
  3000 angles
  3000 dihedrals
  125 impropers
  3 = max # of 1-2 neighbors
  3 = max # of 1-3 neighbors
  6 = max # of 1-4 neighbors
  9 = max # of special neighbors
  special bonds CPU = 0.0125811 secs
  read_restart CPU = 0.096808 secs
neighbor       	0.3 bin
neigh_modify   	every 1 delay 0 check yes

# from Mondello & Grest (1995) JCP 103, 7156: model A
# from Moore et al (Cummings group) (2000) JCP 113, 8833
mass           	1 14.026	# CH2
mass           	2 15.034	# CH3
mass           	3 13.018	# CH

pair_style     	lj/cut 10			# MG do not say if cutoffs obey BL rules
pair_modify    	shift yes			# MG do not really mention if LJ is shifted in their above cited paper, they do so in a follow-up paper.
special_bonds  	lj 0.0 0.0 0.0

bond_style     	harmonic
angle_style    	harmonic
dihedral_style 	multi/harmonic
improper_style	harmonic

pair_coeff     	1 1 0.093 3.93 10
pair_coeff     	1 2 0.145 3.93 10
pair_coeff     	1 3 0.086 3.87 10
pair_coeff     	2 2 0.227 3.93 10
pair_coeff     	2 3 0.134 3.87 10
pair_coeff     	3 3 0.080 3.81 10

bond_coeff      1 448.126 1.54
angle_coeff     1 62.14 114
dihedral_coeff 	1 2.007 -4.012 0.271 6.290 0
dihedral_coeff 	2 0.814 -1.792 0.389 3.673 0
improper_coeff	1 40 27.25

timestep       	1

fix	       	ensemble all nve
fix 		thermostat all langevin ${eqmT} ${eqmT} 100.0 39847
fix 		thermostat all langevin 311 ${eqmT} 100.0 39847
fix 		thermostat all langevin 311 311 100.0 39847
fix		compress all deform 1 x scale ${scalefactor} y scale ${scalefactor} z scale ${scalefactor}	# the scalefactor is computed offline based on the final density of phase 1 and target density ## VIA BASH
fix		compress all deform 1 x scale 1.003023956 y scale ${scalefactor} z scale ${scalefactor}	
fix		compress all deform 1 x scale 1.003023956 y scale 1.003023956 z scale ${scalefactor}	
fix		compress all deform 1 x scale 1.003023956 y scale 1.003023956 z scale 1.003023956	
Resetting global fix info from restart file:
  fix style: deform, fix ID: compress
fix		output_pressure all ave/time 10 100 1000 v_pxx v_pyy v_pzz v_pxy v_pxz v_pyz c_thermo_press ave one file outfiles/pressure.tensor.out
fix 		state_variables all ave/time 10 100 1000 c_thermo_temp v_vol v_rho v_etotal v_a v_b v_c ave one file outfiles/state.variables.out
thermo         	1000
thermo_style   	custom step temp vol press density pe etotal
dump           	gphase2 all atom 10000 outfiles/dumpgphase2.atom	# about 10 MB movie will be generated, change the 10000 to something else if smaller size is needed
dump_modify    	gphase2 first yes
dump_modify    	gphase2 scale no
run            	1000000	# this process of compressing to adjust to the final density is performed slowly so as to not "shock" the system
All restart file global fix info was re-assigned
Neighbor list info ...
  update every 1 steps, delay 0 steps, check yes
  max neighbors/atom: 2000, page size: 100000
  master list distance cutoff = 10.3
  ghost atom cutoff = 10.3
  binsize = 5.15, bins = 9 9 9
  1 neighbor lists, perpetual/occasional/extra = 1 0 0
  (1) pair lj/cut, perpetual
      attributes: half, newton on
      pair build: half/bin/newton/tri
      stencil: half/bin/3d/newton/tri
      bin: standard
Per MPI rank memory allocation (min/avg/max) = 9.29 | 9.557 | 10.32 Mbytes
Step Temp Volume Press Density PotEng TotEng 
10000264    311.42118    91672.844    21.656096   0.79851294   -964.47395    1935.4958 
10001000      311.454    91673.456    1140.6572   0.79850761   -992.66789    1907.6075 
10002000    304.65596    91674.288    331.16079   0.79850036   -930.27826    1906.6935 
10003000    311.80896     91675.12    378.68912   0.79849312   -823.26383     2080.317 
10004000     312.2791    91675.951    312.53138   0.79848588    -1001.709    1906.2498 
10005000    316.08719    91676.783    1086.5063   0.79847863   -964.74856    1978.6714 
10006000     296.7098    91677.615    882.82777   0.79847139   -880.71752    1882.2591 
10007000    308.80895    91678.446    464.33118   0.79846415   -876.34493    1999.2996 
10008000     310.2326    91679.278    462.72787    0.7984569   -920.19065     1968.711 
10009000     301.1844     91680.11    -184.3649   0.79844966   -879.36939     1925.275 
10010000    313.67971    91680.941    1314.0686   0.79844242   -935.66483    1985.3365 
10011000    310.41061    91681.773    409.55401   0.79843517   -943.06855    1947.4907 
10012000    313.50568    91682.605    603.99255   0.79842793   -941.53363    1977.8471 
10013000    310.38295    91683.436    1001.4991   0.79842069   -901.73074     1988.571 
10014000    311.26542    91684.268    1162.1981   0.79841344    -961.0275    1937.4918 
10015000    310.00835      91685.1    495.45769    0.7984062   -842.22355    2044.5899 
10016000    311.06719    91685.932    247.96037   0.79839896   -940.24213    1956.4313 
10017000    313.64953    91686.763    578.52089   0.79839172   -924.96421    1995.7561 
10018000    318.14272    91687.595    356.49256   0.79838447   -945.04342    2017.5177 
10019000    309.64314    91688.427    1260.8603   0.79837723   -932.93725    1950.4753 
10020000    312.34966    91689.259    292.58139   0.79836999   -969.73032    1938.8855 
10021000    318.12545     91690.09    430.53487   0.79836275   -904.20941    2058.1909 
10022000    303.75645    91690.922    775.46498   0.79835551   -959.15711    1869.4383 
10023000    311.01732    91691.754     203.5612   0.79834826   -976.11628    1920.0928 
10024000    314.24058    91692.586    766.09108   0.79834102   -994.75069    1931.4735 
10025000    313.58207    91693.417    593.55832   0.79833378   -923.64411     1996.448 
10026000     312.4849    91694.249    133.90911   0.79832654    -957.4952      1952.38 
10027000    315.20024    91695.081    903.58348    0.7983193   -881.39715    2053.7634 
10028000    307.45123    91695.913    843.83699   0.79831205   -837.18608    2025.8153 
10029000    320.08655    91696.744    1285.3374   0.79830481   -823.98289    2156.6793 
10030000    304.27571    91697.576    140.56966   0.79829757   -847.27739    1986.1534 
10031000    312.69944    91698.408    475.19554   0.79829033   -962.53863    1949.3344 
10032000    321.29877     91699.24    869.80052   0.79828309   -864.52842     2127.422 
10033000      316.006    91700.072   -385.37419   0.79827585   -833.63999    2109.0238 
10034000    319.76007    91700.903    555.37719   0.79826861   -836.29429    2141.3277 
10035000    307.92678    91701.735     554.0869   0.79826137   -874.77178     1992.658 
10036000    309.25706    91702.567    684.45208   0.79825412   -885.94263    1993.8747 
10037000     307.2957    91703.399    214.87914   0.79824688   -834.93955    2026.6136 
10038000    312.56994    91704.231    634.42002   0.79823964   -897.22062    2013.4465 
10039000    309.42919    91705.063    931.38177    0.7982324   -945.88644    1935.5339 
10040000    312.81863    91705.894    963.98825   0.79822516   -949.64699    1963.3359 
10041000    317.02181    91706.726    295.76371   0.79821792   -908.96347    2043.1597 
10042000    316.96975    91707.558    185.60419   0.79821068   -915.20827    2036.4301 
10043000    310.42753     91708.39   -278.08953   0.79820344   -953.99005    1936.7268 
10044000     313.0717    91709.222     354.1589    0.7981962   -878.31892    2037.0206 
10045000    315.37259    91710.054    268.00634   0.79818896   -883.55788    2053.2076 
10046000    306.69095    91710.886   -2.1898818   0.79818172   -875.31985    1980.6018 
10047000    314.39786    91711.717    432.96252   0.79817448    -1014.695    1912.9939 
10048000    312.82552    91712.549    1081.2608   0.79816724   -975.45265    1937.5944 
10049000    316.22274    91713.381    1082.2648      0.79816   -902.80771    2041.8744 
10050000    310.27616    91714.213    710.63385   0.79815276   -899.14337     1990.164 
10051000    307.66303    91715.045    475.03099   0.79814552   -1005.7874    1859.1863 
10052000    309.73904    91715.877    1419.5706   0.79813828   -958.55164     1925.754 
10053000    321.57807    91716.709    1155.9317   0.79813104   -897.48488    2097.0664 
10054000    316.00044    91717.541    797.06996    0.7981238    -934.9112    2007.7009 
10055000    315.95855    91718.373    772.71744   0.79811656   -881.83017    2060.3918 
10056000    304.79872    91719.205    280.26413   0.79810932   -874.90047    1963.4007 
10057000    315.33559    91720.036   -781.42903   0.79810209   -991.69551    1944.7255 
10058000    307.47958    91720.868   -126.72407   0.79809485    -929.1477    1934.1177 
10059000    309.56423      91721.7    24.578689   0.79808761   -880.33351    2002.3442 
10060000    313.79577    91722.532    1110.3755   0.79808037   -993.98984    1928.0922 
10061000    311.22751    91723.364    -644.7343   0.79807313   -937.67633      1960.49 
10062000    313.34336    91724.196     1297.108   0.79806589   -921.32502    1996.5442 
10063000    307.54316    91725.028    916.91568   0.79805865   -966.48006    1897.3774 
10064000    310.51537     91725.86    1036.0287   0.79805141   -920.40084    1971.1339 
10065000    310.21876    91726.692    1325.2681   0.79804418    -963.7542    1925.0186 
10066000    301.43097    91727.524    581.63217   0.79803694   -930.10296    1876.8375 
10067000    313.26249    91728.356    717.82099    0.7980297   -899.49334    2017.6228 
10068000    318.28964    91729.188   -376.04361   0.79802246   -865.91653    2098.0127 
10069000    313.24691     91730.02    124.11736   0.79801522   -876.22078    2040.7503 
10070000    312.47923    91730.852     397.3405   0.79800799   -910.77531    1999.0471 
10071000    313.74437    91731.684    413.78405   0.79800075   -966.28651     1955.317 
10072000    304.28347    91732.516    785.22833   0.79799351   -872.33839    1961.1647 
10073000    313.67156    91733.348     273.9371   0.79798627   -934.11985    1986.8056 
10074000    309.54944     91734.18   -153.67498   0.79797903   -862.45569    2020.0844 
10075000    309.57234    91735.012    149.90062    0.7979718   -913.73343    1969.0199 
10076000    311.10935    91735.844    295.84017   0.79796456   -860.64476    2036.4213 
10077000    315.34843    91736.676    1346.0781   0.79795732   -882.12293    2054.4176 
10078000    312.04498    91737.508    934.50738   0.79795009   -937.06976    1968.7089 
10079000    317.61625     91738.34    1416.7676   0.79794285   -974.48021    1983.1783 
10080000    314.58392    91739.172   -877.06217   0.79793561   -904.62752    2024.7939 
10081000    313.88632    91740.004    180.99511   0.79792837   -913.46125     2009.464 
10082000    315.75324    91740.836    1063.5759   0.79792114    -844.2967    2096.0134 
10083000    316.62667    91741.668    649.44548    0.7979139   -918.11069    2030.3329 
10084000    304.95138      91742.5    1694.3086   0.79790666   -844.27126    1995.4514 
10085000    306.90291    91743.332     651.1407   0.79789943   -906.25154    1951.6439 
10086000    312.44575    91744.165    801.19785   0.79789219     -919.062    1990.4486 
10087000     307.2378    91744.997    932.35451   0.79788495   -882.92732    1978.0866 
10088000    312.62078    91745.829    1136.9227   0.79787772   -901.99707    2009.1435 
10089000    309.60556    91746.661   -59.604671   0.79787048   -981.17917    1901.8835 
10090000    308.76587    91747.493    717.36454   0.79786324   -861.17804    2014.0654 
10091000    310.24717    91748.325    583.14278   0.79785601   -932.45218    1956.5851 
10092000     308.0738    91749.157    247.08535   0.79784877   -939.70232    1929.0965 
10093000    309.25913    91749.989    405.48488   0.79784154   -917.46497    1962.3717 
10094000    312.59379    91750.821     541.1937    0.7978343   -897.62964    2013.2596 
10095000    315.84708    91751.653   -70.465073   0.79782707   -872.24981    2068.9342 
10096000    315.59064    91752.486    518.49278   0.79781983   -872.80802     2065.988 
10097000    311.38172    91753.318    401.42795   0.79781259   -933.72145    1965.8809 
10098000    311.49179     91754.15    354.01707   0.79780536   -899.65288    2000.9745 
10099000    309.09401    91754.982    316.94541   0.79779812   -960.30176    1917.9973 
10100000    307.25769    91755.814    160.96832   0.79779089   -859.68357    2001.5156 
10101000    309.81011    91756.646    775.11942   0.79778365   -930.63158    1954.3358 
10102000    307.65526    91757.478     333.7757   0.79777642   -961.60074    1903.3006 
10103000    315.09343    91758.311    133.98362   0.79776918   -947.38083    1986.7851 
10104000    309.45978    91759.143     626.5667   0.79776195   -915.03272    1966.6724 
10105000    312.00003    91759.975    656.57457   0.79775471   -900.52092    2004.8392 
10106000    303.63975    91760.807    1202.3525   0.79774748   -904.87077     1922.638 
10107000    310.85003    91761.639      506.881   0.79774024   -950.36401    1944.2872 
10108000    301.91002    91762.471    1590.0515   0.79773301   -908.29641    1903.1049 
10109000    306.79103    91763.304    693.31826   0.79772577   -903.68125    1953.1724 
10110000    307.80865    91764.136    942.44677   0.79771854   -911.69118    1954.6386 
10111000    320.06626    91764.968     79.34995   0.79771131   -944.19418     2036.279 
10112000    309.35611      91765.8    1135.3316   0.79770407   -940.61343    1940.1263 
10113000    304.75214    91766.632    519.14156   0.79769684   -879.60556    1958.2618 
10114000    309.87558    91767.465    473.54105    0.7976896   -874.65346    2010.9236 
10115000    307.08715    91768.297    36.953417   0.79768237   -860.25722    1999.3538 
10116000    307.73709    91769.129    350.08208   0.79767513   -830.04296    2035.6204 
10117000    317.16754    91769.961  -0.84356383    0.7976679   -881.20053    2072.2797 
10118000    316.77704    91770.794    556.31069   0.79766067   -858.94243    2090.9014 
10119000    311.93713    91771.626     738.1997   0.79765343   -941.39292    1963.3814 
10120000    308.80422    91772.458    447.51607    0.7976462   -872.56499    2003.0355 
10121000    311.21661     91773.29    584.19707   0.79763897   -912.99856    1985.0662 
10122000    307.03065    91774.123    544.91037   0.79763173   -895.06348    1964.0214 
10123000    316.01582    91774.955    929.53043    0.7976245   -943.40416    1999.3511 
10124000    314.97632    91775.787    892.50156   0.79761727   -829.30275    2103.7727 
10125000    313.59227    91776.619    416.69748   0.79761003   -787.67632    2132.5107 
10126000    311.47579    91777.452    917.73034    0.7976028   -843.02302    2057.4553 
10127000    306.11767    91778.284   -195.14218   0.79759557   -935.49252    1915.0907 
10128000     306.3781    91779.116    -138.5836   0.79758833   -848.49878    2004.5096 
10129000    306.21414    91779.948    954.81879    0.7975811   -851.61187    1999.8697 
10130000    319.91335    91780.781    474.37181   0.79757387   -857.53633    2121.5129 
10131000    312.48088    91781.613     1273.113   0.79756664    -931.4185    1978.4193 
10132000    316.49886    91782.445    1100.3862    0.7975594   -803.33612    2143.9173 
10133000    306.96202    91783.278    425.49858   0.79755217   -890.01234    1968.4335 
10134000    303.03461     91784.11    692.78714   0.79754494   -862.21518    1959.6584 
10135000    306.06229    91784.942    205.35786   0.79753771   -935.78656     1914.281 
10136000    312.02154    91785.775    1165.9354   0.79753047   -842.49193    2063.0685 
10137000    315.55618    91786.607    1250.4174   0.79752324   -873.78983    2064.6853 
10138000    305.20722    91787.439    533.38998   0.79751601   -948.55977    1893.5453 
10139000     311.2701    91788.272    60.510016   0.79750878   -904.32178    1994.2411 
10140000    313.47849    91789.104    1085.6933   0.79750155   -899.23282    2019.8947 
10141000    320.13399    91789.936    650.56313   0.79749432   -1001.8137    1979.2902 
10142000    310.55241    91790.769    500.77531   0.79748708    -978.1789    1913.7009 
10143000    315.65503    91791.601    891.63747   0.79747985   -915.59542    2023.8002 
10144000    319.55977    91792.433    1001.0588   0.79747262   -886.86947    2088.8873 
10145000    312.56503    91793.266    373.00948   0.79746539   -921.03327    1989.5881 
10146000    309.91677    91794.098    103.50679   0.79745816    -865.4495    2020.5112 
10147000    310.50305     91794.93   -452.23206   0.79745093   -954.20759    1937.2125 
10148000    315.02309    91795.763   -693.80677    0.7974437   -895.11405    2038.3969 
10149000    307.93643    91796.595    63.586257   0.79743646   -911.09876    1956.4208 
10150000    307.46143    91797.428    332.01005   0.79742923    -910.0223    1953.0741 
10151000    307.15372     91798.26    440.26769     0.797422   -949.13883    1911.0921 
10152000    311.62765    91799.092    410.82084   0.79741477   -921.97005    1979.9224 
10153000    310.22792    91799.925    398.49777   0.79740754   -875.47959    2013.3785 
10154000    314.72783    91800.757    -295.9189   0.79740031   -920.08106    2010.6804 
10155000    303.94431     91801.59    1034.7086   0.79739308   -868.33209    1962.0127 
10156000    315.38152    91802.422    1660.3326   0.79738585   -925.62011    2011.2286 
10157000    317.22448    91803.255    66.018549   0.79737862   -922.76749    2031.2429 
10158000    311.21979    91804.087    1293.5338   0.79737139   -918.62532    1979.4691 
10159000    314.10425    91804.919   -226.40798   0.79736416   -888.77564    2036.1791 
10160000     308.5078    91805.752    307.08383   0.79735693   -962.71083    1910.1294 
10161000    303.99049    91806.584    1196.7978    0.7973497   -878.04167    1952.7332 
10162000    314.85001    91807.417    580.68495   0.79734247   -908.03174    2023.8675 
10163000    307.52712    91808.249   -413.21982   0.79733524   -879.39021    1984.3179 
10164000    313.95031    91809.082    1396.5168   0.79732801   -881.39471    2042.1265 
10165000    308.38766    91809.914   -363.61155   0.79732078   -908.39988    1963.3217 
10166000    304.20927    91810.747    414.36496   0.79731355   -937.60146    1895.2106 
10167000    307.58889    91811.579    168.98769   0.79730632   -914.77493    1949.5084 
10168000    307.67054    91812.412     417.4726   0.79729909   -866.20173    1998.8419 
10169000    314.90305    91813.244   -5.0456194   0.79729186   -871.99851    2060.3946 
10170000    312.44527    91814.077   -381.95663   0.79728463   -878.34067    2031.1655 
10171000    308.25027    91814.909    271.79186    0.7972774   -890.22997    1980.2122 
10172000    317.31288    91815.742   -163.11222   0.79727018   -979.97447    1974.8591 
10173000    310.27563    91816.574    546.79397   0.79726295   -965.65062    1923.6517 
10174000    312.65709    91817.407    1068.6895   0.79725572   -870.19349    2041.2852 
10175000    311.53221    91818.239    204.21479   0.79724849   -976.58825    1924.4155 
10176000     307.3049    91819.072    765.20236   0.79724126   -942.10812    1919.5306 
10177000    312.11198    91819.904    971.07663   0.79723403   -977.75039    1928.6521 
10178000    308.67085    91820.737    216.21704    0.7972268   -944.02584    1930.3327 
10179000    314.55628    91821.569    960.30403   0.79721957   -915.89853    2013.2655 
10180000    311.06705    91822.402    87.515552   0.79721235   -988.38486    1908.2873 
10181000     306.8568    91823.234    1047.2647   0.79720512   -920.60417    1936.8619 
10182000    311.67161    91824.067    598.14554   0.79719789   -845.09137    2057.2105 
10183000    312.37822      91824.9    160.24607   0.79719066   -821.68689    2087.1949 
10184000    309.30066    91825.732     904.3117   0.79718343   -940.25332      1939.97 
10185000    311.36877    91826.565    1029.0376   0.79717621   -828.46039    2071.0214 
10186000    314.03713    91827.397    1906.0373   0.79716898   -916.38191    2007.9477 
10187000    310.38432     91828.23    327.18459   0.79716175   -822.92823    2067.3863 
10188000    307.44006    91829.062    56.019578   0.79715452   -870.99517    1991.9023 
10189000    311.29932    91829.895    870.94535    0.7971473   -919.07454    1979.7605 
10190000    311.65223    91830.728    -263.8296   0.79714007   -917.30296    1984.8184 
10191000    311.04352     91831.56   -130.04424   0.79713284   -841.48037    2054.9727 
10192000    307.89407    91832.393    475.28695   0.79712561   -879.43544    1987.6897 
10193000    304.54379    91833.225    527.44689   0.79711839   -927.44694    1908.4802 
10194000     308.9653    91834.058   -165.88999   0.79711116   -900.22304    1976.8775 
10195000    313.36201    91834.891    384.02075   0.79710393   -878.42619    2039.6167 
10196000    309.00225    91835.723    296.44713    0.7970967   -871.35398    2006.0906 
10197000    312.81002    91836.556    1141.4196   0.79708948   -870.78056    2042.1222 
10198000    309.13903    91837.389    869.85157   0.79708225   -950.39088    1928.3274 
10199000     306.3949    91838.221    1219.9259   0.79707502    -1003.762    1849.4028 
10200000    307.78869    91839.054    -430.8435    0.7970678   -964.12607    1902.0178 
10201000    307.14494    91839.886    432.04897   0.79706057    -1061.843    1798.3062 
10202000    316.51078    91840.719    786.88576   0.79705335   -936.75954    2010.6048 
10203000    306.00997    91841.552     257.9694   0.79704612   -887.12109    1962.4593 
10204000    313.45792    91842.384    752.08162   0.79703889    -895.2663    2023.6697 
10205000    308.67955    91843.217    309.93494   0.79703167   -1028.5344    1845.9051 
10206000    307.77733     91844.05    1650.9336   0.79702444   -867.50939    1998.5287 
10207000    310.64046    91844.882    201.86748   0.79701721   -964.41053    1928.2892 
10208000    314.16576    91845.715    441.53251   0.79700999    -908.6769    2016.8505 
10209000    312.53657    91846.548    553.88162   0.79700276   -836.42209    2073.9343 
10210000    317.42353    91847.381    772.08943   0.79699554    -933.7215    2022.1425 
10211000    307.60879    91848.213    472.56874   0.79698831   -939.61303    1924.8556 
10212000    308.80204    91849.046   -148.24101   0.79698109   -896.26447    1979.3158 
10213000    313.89018    91849.879     187.6328   0.79697386   -956.27733    1966.6839 
10214000    312.88205    91850.711     552.4659   0.79696664    -969.2174    1944.3561 
10215000    312.65453    91851.544    239.65312   0.79695941   -941.08788    1970.3669 
10216000    303.92564    91852.377     520.6913   0.79695218    -903.5459     1926.625 
10217000    311.50583     91853.21      1026.28   0.79694496   -960.24454    1940.5136 
10218000    305.86556    91854.042   -145.55033   0.79693773   -898.05078    1950.1848 
10219000    306.64777    91854.875    1077.0289   0.79693051   -960.09122    1895.4283 
10220000    306.20715    91855.708    1105.7143   0.79692328   -937.43971    1913.9768 
10221000    304.90341    91856.541    435.24447   0.79691606   -970.01608    1869.2599 
10222000    311.29256    91857.373    1027.7704   0.79690884   -888.28781    2010.4843 
10223000    308.89259    91858.206    260.39687   0.79690161   -890.76293    1985.6605 
10224000    308.54112    91859.039    117.59439   0.79689439   -892.72875    1980.4218 
10225000    301.99608    91859.872   -252.79696   0.79688716   -853.03507    1959.1677 
10226000    300.73943    91860.704   -343.15604   0.79687994   -864.26296    1936.2378 
10227000     310.2949    91861.537   -511.29148   0.79687271   -921.27919    1968.2026 
10228000    306.72869     91862.37    456.12306   0.79686549   -894.10205     1962.171 
10229000    313.31203    91863.203    79.418032   0.79685827   -917.89211    1999.6854 
10230000    311.00131    91864.036   -49.583324   0.79685104   -895.73326    2000.3267 
10231000    307.63784    91864.868   -862.53976   0.79684382   -903.48264    1961.2565 
10232000    303.72965    91865.701    192.55284   0.79683659   -861.63799    1966.7079 
10233000    312.43628    91866.534    416.00559   0.79682937   -926.29176    1983.1306 
10234000    307.37204    91867.367     700.4898   0.79682215   -900.60402    1961.6599 
10235000    306.26801      91868.2    755.59432   0.79681492   -952.00662    1899.9766 
10236000    311.84962    91869.032    504.60841    0.7968077   -921.79054    1982.1689 
10237000    313.44288    91869.865    469.41461   0.79680048   -942.62918    1976.1668 
10238000    316.01729    91870.698    536.00893   0.79679325   -874.88929    2067.8797 
10239000    312.69449    91871.531    280.21191   0.79678603   -931.25141    1980.5755 
10240000    303.65592    91872.364   -429.96267   0.79677881   -862.86548    1964.7938 
10241000    314.93741    91873.197     423.3786   0.79677158   -939.90985    1992.8032 
10242000     315.9262     91874.03      312.153   0.79676436   -905.66067    2036.2601 
10243000    319.43147    91874.862    1392.7387   0.79675714   -904.82585    2069.7361 
10244000    303.69335    91875.695    940.84911   0.79674992   -914.99464    1913.0132 
10245000     308.7778    91876.528    408.94878   0.79674269   -946.95684    1928.3977 
10246000    308.03901    91877.361   -91.571431   0.79673547   -907.48094    1960.9939 
10247000    304.34735    91878.194    1648.2514   0.79672825   -864.14162    1969.9563 
10248000    317.85672    91879.027   -742.93235   0.79672103   -956.08865    2003.8092 
10249000    313.07067     91879.86    201.27087    0.7967138   -881.61524    2033.7147 
10250000    313.17742    91880.693    550.07531   0.79670658   -855.11445    2061.2095 
10251000    303.54626    91881.525   -41.832115   0.79669936   -970.06476    1856.5734 
10252000    304.41573    91882.358    46.102682   0.79669214    -969.2636     1865.471 
10253000    312.24694    91883.191    430.70017   0.79668491   -937.86542    1969.7939 
10254000    313.79323    91884.024    540.15741   0.79667769   -910.68789    2011.3705 
10255000    314.56881    91884.857    70.744252   0.79667047   -953.37582    1975.9048 
10256000    308.52672     91885.69   -668.93689   0.79666325   -955.55949     1917.457 
10257000    314.10258    91886.523    626.75664   0.79665603   -915.80699    2009.1322 
10258000    311.01908    91887.356    643.99941   0.79664881    -873.1116    2023.1138 
10259000    309.73181    91888.189    1921.3551   0.79664158   -937.64612    1946.5921 
10260000     307.2156    91889.022    57.977054   0.79663436   -948.03556    1912.7716 
10261000    305.33294    91889.855    86.489551   0.79662714   -900.38784    1942.8879 
10262000    307.06145    91890.688   -93.052001   0.79661992   -970.29621    1889.0756 
10263000    306.76554    91891.521   -668.73867    0.7966127   -835.43424     2021.182 
10264000     309.1512    91892.354    110.78025   0.79660548   -991.38086    1887.4507 
10265000    324.88345    91893.187    665.92565   0.79659826   -864.87294    2160.4582 
10266000    308.14333     91894.02    801.82276   0.79659104   -894.87508    1974.5712 
10267000    311.50907    91894.853    656.43326   0.79658382   -902.17461    1998.6136 
10268000    309.96198    91895.686    900.30441    0.7965766   -956.69422    1929.6874 
10269000    318.60671    91896.519    527.52328   0.79656938   -879.78315    2087.0986 
10270000     317.7039    91897.352   -164.85454   0.79656215   -954.29626    2004.1785 
10271000    303.45147    91898.185  -0.23246873   0.79655493   -842.55551    1983.1999 
10272000    306.23707    91899.018    1109.6893   0.79654771   -842.79005    2008.9051 
10273000    304.12294    91899.851   -569.82485   0.79654049   -999.30249    1832.7058 
10274000    305.83106    91900.684   -39.117681   0.79653327    -890.8117    1957.1026 
10275000     313.6597    91901.517    620.10908   0.79652605   -970.00392    1950.8111 
10276000    319.85357     91902.35    592.94542   0.79651883    -823.0557     2155.437 
10277000    309.41055    91903.183    334.52404   0.79651161   -871.31207    2009.9347 
10278000     302.1152    91904.016    -191.5872   0.79650439   -890.01521    1923.2968 
10279000    303.61902    91904.849    629.46724   0.79649717   -812.60819    2014.7075 
10280000    307.56528    91905.682    572.28729   0.79648996   -957.19513    1906.8683 
10281000    314.11509    91906.515    407.21911   0.79648274   -901.10877    2023.9468 
10282000    313.89382    91907.348    691.26695   0.79647552   -898.20781    2024.7874 
10283000    306.03616    91908.181    271.96944    0.7964683    -885.9064    1963.9178 
10284000    308.31204    91909.014    653.54885   0.79646108    -921.7818    1949.2355 
10285000    296.24512    91909.847    868.15934   0.79645386   -950.84753     1807.802 
10286000    316.00342     91910.68    1108.1527   0.79644664   -953.03884     1989.601 
10287000    317.51436    91911.513    174.14059   0.79643942    -904.6327    2052.0771 
10288000     310.2687    91912.346    726.13843    0.7964322   -944.98785      1944.25 
10289000    314.71087    91913.179    282.05497   0.79642498   -896.47322    2034.1303 
10290000    306.45143    91914.013    283.27563   0.79641776   -942.55868    1911.1325 
10291000    309.39773    91914.846    77.279368   0.79641055   -864.74826    2016.3791 
10292000    308.52492    91915.679    893.72259   0.79640333    -887.0245    1985.9751 
10293000    311.78782    91916.512     133.7347   0.79639611   -951.53103    1951.8529 
10294000    309.20157    91917.345    520.48438   0.79638889   -806.19974    2073.1009 
10295000    311.06335    91918.178    642.56605   0.79638167   -985.75341    1910.8842 
10296000    298.61383    91919.011   -27.179913   0.79637445   -901.15733    1879.5498 
10297000    307.39877    91919.844    167.34582   0.79636724   -877.52313    1984.9898 
10298000    306.04139    91920.678   -72.217909   0.79636002   -867.28676    1982.5861 
10299000     322.6922    91921.511    377.36074    0.7963528   -868.55529    2136.3708 
10300000    305.45227    91922.344   -905.58351   0.79634558   -850.51239    1993.8746 
10301000    309.74751    91923.177    196.10897   0.79633836   -918.07725    1966.3072 
10302000    309.00496     91924.01    243.58923   0.79633115   -890.37426    1987.0955 
10303000    310.50561    91924.843    309.57031   0.79632393   -887.93345    2003.5105 
10304000    312.22946    91925.677   -293.84486   0.79631671   -946.80198    1960.6945 
10305000    304.76622     91926.51    356.64292   0.79630949   -895.87898    1942.1195 
10306000     306.0054    91927.343   -418.38428   0.79630228   -908.74615    1940.7916 
10307000    312.30633    91928.176    541.52066   0.79629506   -890.74641     2017.466 
10308000    314.58625    91929.009    133.50089   0.79628784   -882.01237    2047.4307 
10309000    310.46805    91929.842   -44.699755   0.79628062   -870.13647    2020.9577 
10310000    312.13542    91930.676    689.08374   0.79627341   -935.22759    1971.3932 
10311000    314.73024    91931.509    1253.9083   0.79626619   -928.08287    2002.7011 
10312000    310.15139    91932.342    755.18941   0.79625897   -931.77812    1956.3673 
10313000    305.86342    91933.175    310.96301   0.79625176   -842.06917    2006.1465 
10314000    311.28581    91934.008    827.31562   0.79624454   -844.98958    2053.7196 
10315000    307.08522    91934.842    337.80289   0.79623732   -916.25336    1943.3398 
10316000    317.95505    91935.675    959.75636   0.79623011   -929.69998    2031.1135 
10317000    308.85091    91936.508    719.65769   0.79622289   -856.26829     2019.767 
10318000     311.3387    91937.341    1606.2088   0.79621568   -877.59694    2021.6048 
10319000    315.80416    91938.175    1191.7071   0.79620846   -923.85653    2016.9278 
10320000    310.19843    91939.008    785.64604   0.79620124   -746.00063    2142.5828 
10321000    317.13434    91939.841    262.78079   0.79619403   -904.66047    2048.5106 
10322000    318.95985    91940.674    1336.4559   0.79618681   -840.87044    2129.2998 
10323000    306.38321    91941.508     173.0381    0.7961796   -851.81116    2001.2448 
10324000    315.41876    91942.341   -471.83685   0.79617238   -989.24635    1947.9491 
10325000    308.58747    91943.174     53.10212   0.79616516    -1030.318    1843.2641 
10326000    306.07586    91944.008    788.95864   0.79615795   -963.37465    1886.8193 
10327000    315.40253    91944.841    348.18657   0.79615073   -928.22631     2008.818 
10328000    310.96942    91945.674    126.51421   0.79614352   -944.83745    1950.9255 
10329000    315.71672    91946.507    902.83829    0.7961363   -888.28008    2051.6899 
10330000    312.72196    91947.341    1547.9794   0.79612909   -927.67261    1984.4101 
10331000    307.55461    91948.174   -767.83819   0.79612187   -907.49268    1956.4714 
10332000    306.45532    91949.007    307.29946   0.79611466   -948.47004    1905.2574 
10333000    312.01722    91949.841    576.32012   0.79610744   -882.55769    2022.9624 
10334000    311.69701    91950.674   -191.08919   0.79610023   -951.61035    1950.9279 
10335000    307.09671    91951.507    644.27838   0.79609301   -929.76185    1929.9382 
10336000    320.77373    91952.341    687.92131    0.7960858   -941.67218     2045.389 
10337000     306.4758    91953.174    1232.9793   0.79607858   -893.76416     1960.154 
10338000    312.51936    91954.007     300.9003   0.79607137   -876.99656    2033.1995 
10339000    311.64462    91954.841    67.765247   0.79606415   -941.63527    1960.4152 
10340000    309.07077    91955.674   -346.08015   0.79605694   -922.84589    1955.2368 
10341000    314.87018    91956.507    386.43533   0.79604973   -863.91112     2068.176 
10342000    307.34744    91957.341     374.2883   0.79604251    -931.8087    1930.2262 
10343000    314.43217    91958.174    42.799126    0.7960353   -906.77108    2021.2372 
10344000    317.77898    91959.007    930.08334   0.79602808   -946.30384    2012.8701 
10345000    311.65037    91959.841    123.09376   0.79602087   -842.13721    2059.9668 
10346000    309.81642    91960.674    375.90669   0.79601366   -838.99926     2046.027 
10347000    309.40458    91961.508    784.04712   0.79600644   -877.77644    2003.4146 
10348000    306.15348    91962.341   -759.21955   0.79599923   -861.58902    1989.3277 
10349000    306.02078    91963.174   -672.62518   0.79599201   -918.18559    1931.4954 
10350000    307.69873    91964.008    -267.8201    0.7959848   -847.00014     2018.306 
10351000    308.02049    91964.841    907.86095   0.79597759   -895.93021    1972.3722 
10352000     308.3699    91965.675    161.47785   0.79597037   -937.22701    1934.3291 
10353000     315.8647    91966.508    27.861121   0.79596316   -947.65821    1993.6899 
10354000    303.70336    91967.341    456.60504   0.79595595    -945.3245    1882.7765 
10355000    311.19649    91968.175   -43.149141   0.79594873   -845.79438    2052.0831 
10356000    308.21282    91969.008    1175.6932   0.79594152   -931.61646     1938.477 
10357000     306.1243    91969.842    127.88148   0.79593431   -876.52858    1974.1164 
10358000    307.88255    91970.675    234.28796    0.7959271   -963.09974    1903.9182 
10359000    312.66199    91971.509    700.08643   0.79591988   -986.50233     1925.022 
10360000     317.2959    91972.342    -306.6166   0.79591267   -971.57291    1983.1026 
10361000    306.36126    91973.176    373.66152   0.79590546   -864.50839    1988.3432 
10362000    308.26016    91974.009    375.86937   0.79589825    -909.2265    1961.3077 
10363000     310.3481    91974.842     347.6754   0.79589103    -953.4107    1936.5665 
10364000    314.96173    91975.676    183.34854   0.79588382   -906.48678    2026.4528 
10365000    317.82273    91976.509    570.11019   0.79587661   -966.48218    1993.0992 
10366000    310.19258    91977.343    95.574598    0.7958694   -879.34754    2009.1814 
10367000    307.19208    91978.176     673.4424   0.79586218   -946.08418    1914.5041 
10368000    309.09495     91979.01    10.845019   0.79585497   -900.71387    1977.5939 
10369000    319.77513    91979.843    456.69889   0.79584776   -921.23489    2056.5273 
10370000    314.94984    91980.677   -3.9646124   0.79584055   -936.96468    1995.8641 
10371000    308.40311     91981.51    734.14817   0.79583334   -957.92225    1913.9431 
10372000    316.72479    91982.344    990.99232   0.79582613    -900.7704    2048.5868 
10373000    310.37419    91983.177   -334.38793   0.79581891   -978.68769    1911.5324 
10374000    304.67618    91984.011   -19.374301    0.7958117   -900.44086    1936.7191 
10375000    320.59584    91984.844    103.91486   0.79580449   -961.60102    2023.8037 
10376000    312.63159    91985.678    357.83577   0.79579728    -853.2049    2058.0363 
10377000    309.68414    91986.512    786.51272   0.79579007   -921.43385    1962.3605 
10378000    314.95963    91987.345    52.824031   0.79578286   -996.45764    1936.4623 
10379000    303.34508    91988.179   -327.83709   0.79577565   -963.60348    1861.1613 
10380000    314.80533    91989.012   -9.0240135   0.79576844   -988.13962    1943.3435 
10381000    308.37368    91989.846   -82.999371   0.79576123   -1002.7001    1868.8912 
10382000    312.53248    91990.679    1279.8802   0.79575402   -1016.4527    1893.8655 
10383000    310.23518    91991.513   -598.12055    0.7957468   -983.53243    1905.3933 
10384000    306.55057    91992.346    642.47018   0.79573959   -936.10218    1918.5122 
10385000    305.69758     91993.18   -134.63364   0.79573238   -939.86269    1906.8087 
10386000    313.76073    91994.014    412.56126   0.79572517   -985.72061    1936.0352 
10387000    311.43024    91994.847   -39.662869   0.79571796   -869.41853    2030.6357 
10388000     310.7267    91995.681     989.7951   0.79571075   -978.94562    1914.5571 
10389000    307.04678    91996.514    825.48896   0.79570354   -925.75289    1933.4822 
10390000    309.96133    91997.348   -350.53507   0.79569633   -972.81298    1913.5626 
10391000    310.71089    91998.182    228.30455   0.79568912   -1001.0011    1892.3544 
10392000    306.65378    91999.015   -575.57516   0.79568191   -952.39919    1903.1764 
10393000    307.99975    91999.849    799.78284    0.7956747     -870.703    1997.4062 
10394000    318.01991    92000.682    825.84911   0.79566749    -854.5873    2106.8302 
10395000    315.20779    92001.516   -126.87306   0.79566028   -906.78802    2028.4429 
10396000    308.87272     92002.35    110.19858   0.79565307   -948.73097    1927.5074 
10397000    308.08816    92003.183   -287.91751   0.79564587   -971.34223    1897.5903 
10398000    311.18098    92004.017    661.78667   0.79563866   -996.40521    1901.3279 
10399000    310.58978    92004.851    -290.1854   0.79563145   -975.41786    1916.8099 
10400000    314.31093    92005.684    765.27067   0.79562424   -990.95983    1935.9195 
10401000    313.89434    92006.518    700.79959   0.79561703   -987.59326    1935.4067 
10402000    318.11625    92007.352   -236.15374   0.79560982   -944.38593    2017.9287 
10403000    301.42648    92008.185   -78.050983   0.79560261   -878.97143    1927.9272 
10404000    301.90991    92009.019    -761.2806    0.7955954   -941.50796    1869.8924 
10405000    317.89122    92009.853    584.42922   0.79558819   -974.29653    1985.9226 
10406000    308.63376    92010.686   -109.61994   0.79558098   -891.94082    1982.0724 
10407000    310.38605     92011.52    653.69587   0.79557378   -1032.2027    1858.1279 
10408000     309.1745    92012.354    139.77411   0.79556657    -960.2179    1918.8307 
10409000    321.01316    92013.187    341.04375   0.79555936   -991.76365    1997.5271 
10410000    306.99898    92014.021   -127.50777   0.79555215   -865.71453    1993.0755 
10411000    308.21216    92014.855    352.32555   0.79554494   -953.61638    1916.4708 
10412000     307.5607    92015.688   -521.61734   0.79553773   -890.31177     1973.709 
10413000    306.31673    92016.522     640.1529   0.79553053   -945.53916    1906.8977 
10414000    311.08327    92017.356   -658.39195   0.79552332    -995.4821     1901.341 
10415000    313.06392     92018.19    513.76366   0.79551611   -944.79173    1970.4753 
10416000    301.55348    92019.023   -126.17344    0.7955089   -883.88787    1924.1934 
10417000    313.21461    92019.857    793.64856    0.7955017   -899.23079    2017.4395 
10418000    313.52409    92020.691    386.98084   0.79549449    -1025.324    1894.2281 
10419000    315.91012    92021.525    64.442745   0.79548728   -974.72279    1967.0483 
10420000     315.6757    92022.358     218.0503   0.79548007   -957.15966    1982.4285 
10421000    314.66823    92023.192   -74.957858   0.79547287   -958.33423    1971.8722 
10422000    299.48269    92024.026    1315.3403   0.79546566   -768.74768    2020.0502 
10423000    318.60402     92024.86   -381.27685   0.79545845   -868.35254    2098.5042 
10424000     314.1154    92025.693    325.36281   0.79545124   -998.28895    1926.7696 
10425000    315.78688    92026.527   -439.14008   0.79544404   -907.41447    2033.2089 
10426000    306.37455    92027.361    260.40806   0.79543683   -937.11265    1915.8627 
10427000    302.16218    92028.195    98.356166   0.79542962   -847.20898    1966.5405 
10428000    311.98217    92029.029    67.119805   0.79542242    -862.5135    2042.6803 
10429000    308.50223    92029.862    251.00004   0.79541521   -900.02503    1972.7634 
10430000    309.36497    92030.696   -55.253366     0.795408   -969.25672    1911.5655 
10431000    315.11957     92031.53    400.44242    0.7954008   -916.67317    2017.7362 
10432000    313.09857    92032.364    1220.3566   0.79539359   -1012.6086    1902.9812 
10433000     315.7531    92033.198    787.07227   0.79538639   -937.23814    2003.0707 
10434000    311.60861    92034.031    577.34093   0.79537918   -993.75664    1907.9585 
10435000    317.12948    92034.865    340.86477   0.79537197   -944.05467    2009.0711 
10436000    304.97661    92035.699    538.64726   0.79536477   -955.82457    1884.1331 
10437000    311.36729    92036.533    186.04183   0.79535756   -879.52792    2019.9401 
10438000    310.39787    92037.367    166.31549   0.79535036   -916.29307    1974.1476 
10439000    312.35053    92038.201     670.9796   0.79534315   -892.43196     2016.192 
10440000     304.1032    92039.035    536.69988   0.79533594   -999.15179    1832.6726 
10441000    313.39476    92039.868    569.78689   0.79532874   -852.50894     2065.839 
10442000    315.73504    92040.702    138.85652   0.79532153   -907.87793    2032.2627 
10443000    305.91821    92041.536    832.93792   0.79531433    -895.1253    1953.6006 
10444000    302.04562     92042.37    447.21242   0.79530712   -941.11558    1871.5485 
10445000    312.13024    92043.204    441.44027   0.79529992   -971.18556    1935.3871 
10446000    314.26176    92044.038    874.74797   0.79529271   -907.21462    2019.2068 
10447000    314.81966    92044.872    577.31093   0.79528551    -950.4606     1981.156 
10448000    315.76981    92045.706    694.14336    0.7952783   -956.64667    1983.8178 
10449000    312.48856    92046.539    326.46238    0.7952711   -875.24392    2034.6653 
10450000    308.53997    92047.373    -129.0579   0.79526389    -883.3363    1989.8035 
10451000    307.37742    92048.207    417.66322   0.79525669   -832.11943    2030.1946 
10452000    311.58264    92049.041    352.63685   0.79524948   -898.50504    2002.9682 
10453000     314.2076    92049.875    418.09472   0.79524228   -913.52565    2012.3914 
10454000    307.44939    92050.709    1093.0061   0.79523507   -890.74212    1972.2422 
10455000    309.09423    92051.543   -188.24016   0.79522787   -1008.3955    1869.9056 
10456000    313.20517    92052.377    222.27002   0.79522067   -886.21508    2030.3673 
10457000    309.84038    92053.211     77.22112   0.79521346   -939.29841    1945.9508 
10458000    314.11673    92054.045    703.22563   0.79520626   -892.14093      2032.93 
10459000    318.12071    92054.879   -538.07607   0.79519905   -898.17203    2064.1841 
10460000    310.24686    92055.713   -277.72312   0.79519185    -944.1272    1944.9072 
10461000       308.89    92056.547    705.71636   0.79518465   -869.84675    2006.5526 
10462000    308.45591    92057.381    41.848785   0.79517744   -965.07632    1907.2808 
10463000    309.41798    92058.215    457.08174   0.79517024   -975.45408    1905.8618 
10464000    309.37983    92059.049    986.89707   0.79516303   -848.60399    2032.3566 
10465000    319.24751    92059.883    270.65595   0.79515583   -891.79986    2081.0491 
10466000    312.71512    92060.717    1362.3893   0.79514863    -881.0487    2030.9704 
10467000    316.79484     92061.55    546.24868   0.79514142   -817.11162    2132.8979 
10468000    306.16447    92062.384    381.87815   0.79513422   -914.61949    1936.3996 
10469000    309.33124    92063.218    275.63659   0.79512702    -934.3161     1946.192 
10470000    305.11234    92064.052    440.20894   0.79511982   -895.18575    1946.0358 
10471000    311.70372    92064.887    1135.2414   0.79511261   -959.34417    1943.2567 
10472000    302.55166    92065.721    4.6931383   0.79510541   -913.45179    1903.9246 
10473000    312.34207    92066.555    1090.5014   0.79509821   -957.82778    1950.7174 
10474000    312.71678    92067.389    -193.2713     0.795091   -911.52615    2000.5084 
10475000    315.41426    92068.223   -837.96537    0.7950838   -842.81151     2094.342 
10476000    305.42534    92069.057   -614.08274    0.7950766   -917.29732    1926.8389 
10477000    313.30474    92069.891    569.25485    0.7950694   -886.12112    2031.3885 
10478000    316.84886    92070.725    510.10988   0.79506219   -857.59719    2092.9155 
10479000     314.4179    92071.559    94.597594   0.79505499   -961.91527    1965.9602 
10480000    312.76195    92072.393     314.8734   0.79504779   -881.98967    2030.4655 
10481000    301.59292    92073.227   -194.08091   0.79504059   -850.19656     1958.252 
10482000    311.84313    92074.061    879.33277   0.79503339   -945.81207     1958.087 
10483000    307.02743    92074.895      339.502   0.79502618   -796.20324    2062.8517 
10484000    311.44867    92075.729    1056.6182   0.79501898   -879.11739    2021.1084 
10485000    314.08647    92076.563    198.70046   0.79501178   -829.99366    2094.7955 
10486000    307.00749    92077.397    844.09674   0.79500458    -879.0852    1979.7841 
10487000    310.10666    92078.231   -371.50696   0.79499738   -891.50314    1996.2258 
10488000    312.98321    92079.065    754.59276   0.79499018   -940.02218    1974.4933 
10489000    309.79615      92079.9    388.96223   0.79498297   -915.37001    1969.4675 
10490000    310.11036    92080.734    790.16428   0.79497577   -936.40522    1951.3582 
10491000    302.30797    92081.568    445.56362   0.79496857   -911.60797    1903.4992 
10492000    311.50509    92082.402    426.27054   0.79496137   -937.70859    1963.0425 
10493000    304.29253    92083.236     420.2022   0.79495417   -867.10376    1966.4837 
10494000    313.62742     92084.07   -614.62863   0.79494697   -832.03832    2088.4761 
10495000     311.4595    92084.904    874.06216   0.79493977   -934.71263    1965.6139 
10496000    305.80897    92085.738    711.82121   0.79493257   -851.88224    1995.8264 
10497000    304.03441    92086.573    52.431558   0.79492537   -896.76015    1934.4236 
10498000    310.25675    92087.407    1049.4936   0.79491817   -914.80816    1974.3184 
10499000    314.56038    92088.241    586.01031   0.79491096   -881.69692    2047.5052 
10500000    308.16306    92089.075    259.58742   0.79490376   -900.29583    1969.3342 
10501000    311.93355    92089.909    -24.00231   0.79489656   -872.54012    2032.2009 
10502000    316.91127    92090.743   -738.59321   0.79488936   -879.18036    2071.9134 
10503000    307.79019    92091.578    505.24608   0.79488216   -880.99974     1985.158 
10504000    307.44569    92092.412    1118.4703   0.79487496   -928.87982      1934.07 
10505000     317.2058    92093.246    174.89792   0.79486776   -881.26488    2072.5716 
10506000    308.25091     92094.08    854.32371   0.79486056   -958.49652    1911.9516 
10507000    315.26919    92094.914    1040.6559   0.79485336   -961.19843    1974.6042 
10508000    308.20454    92095.748   -677.53063   0.79484616   -1022.2805    1847.7358 
10509000    310.32928    92096.583    183.52673   0.79483896   -929.85612    1959.9458 
10510000    312.01956    92097.417    1511.8117   0.79483176   -988.15465    1917.3873 
10511000    304.63977    92098.251   -222.56971   0.79482457   -936.91857    1899.9024 
10512000      308.062    92099.085    327.34681   0.79481737    -973.9392    1894.7497 
10513000    312.18611     92099.92    506.73498   0.79481017   -912.25535    1994.8375 
10514000    311.73589    92100.754    466.06726   0.79480297   -933.84383    1969.0566 
10515000    317.98677    92101.588    456.31309   0.79479577   -952.67233    2008.4365 
10516000    310.14873    92102.422    782.55564   0.79478857   -972.65885    1915.4618 
10517000    318.68469    92103.256    750.24285   0.79478137   -952.45905    2015.1489 
10518000     305.1733    92104.091    1080.7533   0.79477417    -986.1415    1855.6477 
10519000    312.75853    92104.925     212.5735   0.79476697   -901.76977    2010.6535 
10520000    311.07917    92105.759     510.6939   0.79475977   -1072.6058    1824.1791 
10521000    317.16681    92106.593    227.05599   0.79475258   -884.94701    2068.5264 
10522000    312.28241    92107.428    -562.9216   0.79474538   -942.74331    1965.2463 
10523000    310.50764    92108.262    26.703348   0.79473818   -880.56009    2010.9027 
10524000    307.56827    92109.096    805.11172   0.79473098   -960.83599    1903.2553 
10525000    299.78232    92109.931    134.58688   0.79472378    -1007.924    1783.6641 
10526000    315.80436    92110.765    227.46051   0.79471658   -1008.6045    1932.1817 
10527000    306.82361    92111.599   -202.51288   0.79470939   -916.46894    1940.6881 
10528000    312.57887    92112.433    98.926122   0.79470219   -915.66734    1995.0829 
10529000     309.1415    92113.268    -276.7258   0.79469499   -904.34109    1974.4002 
10530000    316.59088    92114.102   -643.48991   0.79468779   -994.76157    1953.3487 
10531000    311.58344    92114.936    176.71429   0.79468059   -1001.2636    1900.2172 
10532000    309.30533    92115.771    2134.5704    0.7946734   -935.99679    1944.2701 
10533000    316.92695    92116.605    469.23694    0.7946662   -1002.8616    1948.3782 
10534000    320.35695    92117.439    244.83097     0.794659   -890.43395    2092.7462 
10535000    316.41642    92118.274   -266.92556    0.7946518    -983.5291    1962.9566 
10536000    309.54484    92119.108    722.48933   0.79464461   -972.23418     1910.263 
10537000     306.0081    92119.942   -147.01138   0.79463741   -940.90251    1908.6604 
10538000    312.83233    92120.777    1307.7928   0.79463021   -928.14868    1984.9618 
10539000    310.34032    92121.611    169.94111   0.79462302   -904.67764    1985.2271 
10540000    305.77802    92122.445    725.75746   0.79461582   -991.22908    1856.1913 
10541000    310.34465     92123.28    495.57182   0.79460862    -822.7144    2067.2306 
10542000    306.95956    92124.114    144.90193   0.79460143   -931.50031    1926.9227 
10543000    312.58003    92124.949    483.85091   0.79459423   -885.73546    2025.0256 
10544000    311.70544    92125.783    331.36325   0.79458703   -903.72367    1998.8932 
10545000    312.25704    92126.617    930.57267   0.79457984   -893.03861    2014.7148 
10546000    311.23817    92127.452   -94.500089   0.79457264   -922.40764     1975.858 
10547000    315.21955    92128.286    1048.3901   0.79456544    -886.4332    2048.9072 
10548000    302.98654     92129.12    577.78242   0.79455825   -930.30511    1891.1209 
10549000    306.66888    92129.955    839.51536   0.79455105   -914.36438    1941.3518 
10550000    313.22637    92130.789    323.78804   0.79454385   -890.06881     2026.711 
10551000    312.55876    92131.624    687.61358   0.79453666   -822.44238    2088.1206 
10552000    300.39998    92132.458    173.80352   0.79452946   -887.06429    1910.2755 
10553000    299.98832    92133.293    94.494948   0.79452227   -951.19025    1842.3161 
10554000     310.3561    92134.127    768.24408   0.79451507   -936.06917    1953.9825 
10555000    313.64191    92134.961    918.76951   0.79450787   -936.18803    1984.4613 
10556000    309.32453    92135.796    782.45435   0.79450068   -900.33893    1980.1068 
10557000    312.29823     92136.63   -442.36266   0.79449348   -935.74529    1972.3917 
10558000    314.95057    92137.465    482.62074   0.79448629   -887.62714    2045.2085 
10559000    317.35703    92138.299    486.89811   0.79447909   -860.07827    2095.1664 
10560000    311.71996    92139.134    391.68652    0.7944719   -968.20262    1934.5494 
10561000    305.29239    92139.968    436.69471    0.7944647   -852.48369    1990.4145 
10562000    311.50742    92140.803    -213.2812   0.79445751   -899.37367    2001.3992 
10563000    314.16141    92141.637      414.854   0.79445031   -941.94564    1983.5413 
10564000    309.65111    92142.472    1006.0296   0.79444312   -918.09166    1965.3951 
10565000    312.93641    92143.306    901.77323   0.79443592   -963.63618    1950.4435 
10566000    317.98862    92144.141    372.71116   0.79442873   -935.57423    2025.5519 
10567000    305.23604    92144.975    236.59515   0.79442153   -898.77755    1943.5959 
10568000    316.95906    92145.809    529.10561   0.79441434   -911.19674     2040.342 
10569000    309.33336    92146.644    55.131167   0.79440715   -916.05134    1964.4766 
10570000    316.25015    92147.479     475.7992   0.79439995   -941.10074    2003.8366 
10571000    312.83817    92148.313    1145.5903   0.79439276   -865.36682    2047.7981 
10572000    311.68131    92149.148   -272.27319   0.79438556   -821.26809    2081.1241 
10573000     309.4203    92149.982    493.53992   0.79437837   -911.90968    1969.4278 
10574000    314.87855    92150.817     1121.599   0.79437117   -919.68993     2012.475 
10575000    307.23421    92151.651    265.34552   0.79436398   -908.65812    1952.3224 
10576000    310.48902    92152.486    396.95536   0.79435679   -881.90644     2009.383 
10577000    312.17168     92153.32    311.45375   0.79434959   -946.61405    1960.3444 
10578000    313.66314    92154.155    147.88826    0.7943424   -856.19908    2064.6479 
10579000    301.34804    92154.989   -357.52296   0.79433521   -875.47069    1930.6975 
10580000    311.97003    92155.824    533.82974   0.79432801   -906.71478    1998.3659 
10581000    314.97913    92156.658    1071.6613   0.79432082   -942.68991    1990.4117 
10582000    310.67381    92157.493   -405.80889   0.79431363   -947.36093    1945.6493 
10583000    314.11789    92158.328    1335.8947   0.79430643   -1025.3799    1899.7018 
10584000    310.25303    92159.162    441.05939   0.79429924   -898.43347    1990.6584 
10585000    310.07679    92159.997    172.28975   0.79429205    -944.2512    1943.1995 
10586000    310.27577    92160.831    835.84111   0.79428485   -892.55428    1996.7494 
10587000    315.03435    92161.666    1414.7357   0.79427766   -909.51527    2024.1005 
10588000    315.59416    92162.501    783.21648   0.79427047   -819.90178     2118.927 
10589000    307.41088    92163.335    257.98143   0.79426327   -898.30617    1964.3195 
10590000    299.20637     92164.17    205.28789   0.79425608   -906.73627    1879.4885 
10591000    309.90736    92165.004    1076.4703   0.79424889   -932.41554    1953.4575 
10592000    315.26415    92165.839    327.71242    0.7942417    -909.7099    2026.0459 
10593000    307.14793    92166.674    424.67358    0.7942345   -904.05112     1956.126 
10594000    313.99413    92167.508    2022.5534   0.79422731   -854.52015     2069.409 
10595000    314.06189    92168.343    408.96035   0.79422012   -885.55097    2039.0093 
10596000    313.40879    92169.178   -139.64294   0.79421293   -902.69019    2015.7883 
10597000    312.67262    92170.012    1049.4303   0.79420574   -949.83138    1961.7919 
10598000    319.51388    92170.847    23.215205   0.79419854   -959.80864    2015.5208 
10599000    307.27808    92171.681    378.36972   0.79419135   -928.52335    1932.8657 
10600000    310.76588    92172.516    578.87255   0.79418416    -936.7995    1957.0681 
10601000    305.98695    92173.351    1024.1614   0.79417697   -986.97295     1862.393 
10602000    316.37799    92174.185    422.15615   0.79416978   -922.41499    2023.7129 
10603000    306.83181     92175.02    381.38878   0.79416259   -899.18981    1958.0436 
10604000     319.1707    92175.855   -70.558022   0.79415539   -962.87832    2009.2554 
10605000    305.61344     92176.69    103.99465    0.7941482   -886.83108    1959.0568 
10606000    320.96232    92177.524    180.22215   0.79414101    -903.1986    2085.6188 
10607000    298.94154    92178.359    762.93923   0.79413382   -908.01918    1875.7396 
10608000    310.95608    92179.194   -205.17473   0.79412663   -747.13381    2148.5049 
10609000    317.71768    92180.028   -115.13675   0.79411944   -828.83967    2129.7634 
10610000    307.26715    92180.863   -443.95542   0.79411225   -841.03429     2020.253 
10611000      308.136    92181.698    411.54178   0.79410506   -971.31739    1898.0607 
10612000    315.91379    92182.532    232.65069   0.79409787    -948.1981    1993.6071 
10613000    319.69598    92183.367   -458.58819   0.79409068   -867.43274    2109.5924 
10614000    312.18692    92184.202    654.45484   0.79408349   -851.48904    2055.6113 
10615000    320.17511    92185.037    1116.7725    0.7940763   -877.79841    2103.6884 
10616000    314.62475    92185.871    1004.9956    0.7940691   -907.05924    2022.7424 
10617000    314.58532    92186.706   -657.28113   0.79406191   -876.52862    2052.9058 
10618000    308.59607    92187.541    298.05628   0.79405472   -907.91669    1965.7455 
10619000    307.71709    92188.376    128.52412   0.79404753   -858.21939    2007.2578 
10620000    319.70251     92189.21   -13.501486   0.79404034   -1000.9452    1976.1408 
10621000     303.2328    92190.045    327.87036   0.79403315   -903.19468    1920.5245 
10622000    318.86818     92190.88    499.41799   0.79402596   -915.20801    2054.1086 
10623000    309.60583    92191.715    183.71146   0.79401878   -911.10181    1971.9633 
10624000    304.71705     92192.55    -5.695937   0.79401159    -893.4497    1944.0908 
10625000    307.29926    92193.384    834.90572    0.7940044   -841.24853    2020.3377 
10626000    310.78083    92194.219    1118.7774   0.79399721   -849.79684      2044.21 
10627000     309.9909    92195.054   -376.17668   0.79399002   -918.67686    1967.9741 
10628000    316.84206    92195.889    700.07552   0.79398283   -911.93766    2038.5116 
10629000     306.9537    92196.723   -138.12584   0.79397564   -952.61158    1905.7568 
10630000    308.18697    92197.558    7.9253429   0.79396845   -894.51264      1975.34 
10631000    310.17029    92198.393    1584.4762   0.79396126   -878.52599    2009.7955 
10632000    306.01077    92199.228    546.09474   0.79395407   -821.02381     2028.564 
10633000    315.83105    92200.063    1371.8747   0.79394688   -846.61261    2094.4221 
10634000    311.03157    92200.898    -9.654034   0.79393969   -851.19412    2045.1476 
10635000    315.06834    92201.732   -140.05645    0.7939325   -828.65677    2105.2756 
10636000    316.21416    92202.567   -232.52601   0.79392532   -791.70604    2152.8962 
10637000    308.52023    92203.402   -316.44912   0.79391813   -895.15822    1977.7978 
10638000    307.64371    92204.237    548.57387   0.79391094   -903.08393    1961.7099 
10639000     316.4183    92205.072    40.571773   0.79390375   -887.43944    2059.0638 
10640000    318.45734    92205.907    902.38921   0.79389656   -958.50403    2006.9868 
10641000    311.85927    92206.742    579.10064   0.79388937   -851.92004    2052.1293 
10642000    316.03305    92207.576    313.19629   0.79388219   -826.41996    2116.4958 
10643000    310.39416    92208.411    400.60355     0.793875   -849.55454    2040.8515 
10644000    315.05328    92209.246   -355.02158   0.79386781   -912.68742    2021.1047 
10645000    314.17795    92210.081    895.80566   0.79386062    -908.7084    2016.9326 
10646000    318.22673    92210.916    1087.2199   0.79385343   -894.93318    2068.4102 
10647000    316.90549    92211.751    1646.1255   0.79384625   -855.12881    2095.9111 
10648000     317.5139    92212.586   -101.95141   0.79383906   -868.91723    2087.7882 
10649000    315.03436    92213.421    487.02637   0.79383187   -881.13537    2052.4805 
10650000    323.66522    92214.256    258.55173   0.79382468    -966.0025    2047.9844 
10651000    302.51702    92215.091    1244.3917    0.7938175   -809.82116    2007.2326 
10652000    310.61406    92215.925    254.95556   0.79381031   -894.61991    1997.8339 
10653000    312.43706     92216.76    722.53705   0.79380312   -937.10164     1972.328 
10654000    300.13845    92217.595    19.676312   0.79379594   -959.75129    1835.1532 
10655000     311.8668     92218.43    44.402845   0.79378875    -908.8784    1995.2411 
10656000     308.5571    92219.265    475.71666   0.79378156   -877.78656    1995.5128 
10657000    308.13334      92220.1   -19.338131   0.79377438   -945.06635    1924.2869 
10658000    310.42673    92220.935    555.94074   0.79376719   -940.27516    1950.4343 
10659000    316.34161     92221.77   -258.74706      0.79376   -896.66082    2049.1282 
10660000    311.08091    92222.605    -316.3265   0.79375282   -948.43208    1948.3691 
10661000    317.23257     92223.44    150.40006   0.79374563   -937.25607    2016.8297 
10662000    306.83732    92224.275    405.34485   0.79373844   -934.92224    1922.3624 
10663000    303.43962     92225.11   -63.998216   0.79373126   -862.31071    1963.3344 
10664000    313.39215    92225.945    797.37295   0.79372407   -869.10266    2049.2209 
10665000    305.33485     92226.78     1096.534   0.79371688   -865.02442    1978.2692 
10666000     307.4939    92227.615    761.51009    0.7937097   -920.58676     1942.812 
10667000    307.41178     92228.45    578.15132   0.79370251   -889.52063    1973.1135 
10668000    310.89325    92229.285     982.8864   0.79369533   -904.99167     1990.062 
10669000    316.96556     92230.12   -64.528843   0.79368814   -887.19766    2064.4017 
10670000    308.77291    92230.955     463.6469   0.79368096      -818.29     2057.019 
10671000    310.74682     92231.79    15.672528   0.79367377   -765.78866    2127.9014 
10672000    311.85808    92232.625    979.60132   0.79366658   -887.54615    2016.4921 
10673000    313.83766     92233.46   -654.23483    0.7936594   -853.21202    2069.2602 
10674000    314.60747    92234.295    590.93952   0.79365221    -866.4459    2063.1947 
10675000    312.42685     92235.13    758.23455   0.79364503   -872.01794    2037.3167 
10676000    315.36581    92235.965     1224.673   0.79363784    -903.9051    2032.7973 
10677000    309.83738      92236.8    839.47968   0.79363066    -884.6312    2000.5901 
10678000    316.31166    92237.635    1206.0933   0.79362347   -897.00954    2048.5007 
10679000    309.58482     92238.47    691.67023   0.79361629   -876.91821    2005.9513 
10680000    311.49476    92239.305    608.78824    0.7936091   -906.13865    1994.5164 
10681000    322.33538     92240.14    97.533165   0.79360192   -870.80339       2130.8 
10682000    309.22133    92240.975    806.66372   0.79359473   -913.21473    1966.2699 
10683000    302.49453    92241.811    46.612604   0.79358755   -871.57919    1945.2652 
10684000    307.61453    92242.646    1183.5866   0.79358037   -826.22565    2038.2965 
10685000    307.54089    92243.481   -108.87437   0.79357318   -960.18465    1903.6517 
10686000    306.60583    92244.316    127.05061     0.793566   -794.44564    2060.6834 
10687000    313.07742    92245.151    358.04961   0.79355881   -864.70377     2050.689 
10688000    302.37915    92245.986    785.80205   0.79355163   -837.73391     1978.036 
10689000    307.69811    92246.821    255.34062   0.79354444   -915.98081    1949.3196 
10690000    311.66676    92247.656    1424.2852   0.79353726   -845.86104    2056.3956 
10691000     310.9742    92248.491    499.12888   0.79353008   -834.74715    2061.0604 
10692000    313.28875    92249.326    118.88466   0.79352289   -851.16058    2066.2001 
10693000    317.47034    92250.162    632.86424   0.79351571   -886.60551    2069.6943 
10694000    306.55893    92250.997    198.93013   0.79350853   -904.77196    1949.9203 
10695000    323.71363    92251.832    921.70296   0.79350134   -833.65032    2180.7874 
10696000    308.82729    92252.667    224.79739   0.79349416   -926.51032     1949.305 
10697000    309.33403    92253.502     204.4616   0.79348698   -810.28353    2070.2506 
10698000    310.60362    92254.337   -366.76005   0.79347979   -810.54751    2081.8091 
10699000    311.40196    92255.172    159.07247   0.79347261   -990.55686    1909.2339 
10700000     308.9205    92256.008   -166.00416   0.79346543   -869.57215    2007.1111 
10701000    308.84202    92256.843   -105.67614   0.79345824   -988.50824    1887.4443 
10702000    310.61742    92257.678     597.4401   0.79345106   -928.54959    1963.9355 
10703000    307.62335    92258.513    311.74937   0.79344388   -879.45129    1985.1529 
10704000    310.45298    92259.348    1354.4427   0.79343669   -983.41953    1907.5343 
10705000    319.25518    92260.184    467.40361   0.79342951   -881.65315    2091.2673 
10706000    299.72012    92261.019    943.92551   0.79342233   -906.80149    1884.2075 
10707000     313.6378    92261.854    763.37713   0.79341515   -844.26146    2076.3496 
10708000    313.74572    92262.689    329.67323   0.79340796   -891.25044    2030.3656 
10709000     316.1901    92263.524    517.01144   0.79340078   -863.47125    2080.9069 
10710000    306.68405     92264.36    580.93188    0.7933936   -916.42244    1939.4349 
10711000    310.46628    92265.195    297.65371   0.79338642   -854.96358    2036.1142 
10712000    319.52805     92266.03     1035.744   0.79337924   -826.20566    2149.2557 
10713000    313.75516    92266.865   -263.20451   0.79337205    -882.7777    2038.9262 
10714000     307.2032      92267.7     199.4183   0.79336487   -923.84465    1936.8471 
10715000    308.68304    92268.536   -427.09963   0.79335769    -904.4932    1969.9789 
10716000    313.08516    92269.371   -447.84262   0.79335051   -908.56724    2006.8976 
10717000    315.11034    92270.206    620.10787   0.79334333   -780.49453    2153.8289 
10718000    307.72614    92271.041     531.4575   0.79333615   -887.45944     1978.102 
10719000    306.52737    92271.877    1108.3358   0.79332896   -847.21236    2007.1861 
10720000     306.0345    92272.712   -298.54963   0.79332178   -819.42696    2030.3818 
10721000     309.2177    92273.547    320.25034    0.7933146   -860.81058    2018.6402 
10722000    309.18811    92274.383   -238.09982   0.79330742   -869.19464    2009.9807 
10723000    319.26514    92275.218    272.23552   0.79330024   -907.58775    2065.4254 
10724000    311.62186    92276.053   -296.07689   0.79329306   -891.15093    2010.6876 
10725000    309.46718    92276.888    382.93928   0.79328588   -969.53073    1912.2433 
10726000    310.33449    92277.724    307.58489    0.7932787   -896.64715    1993.2033 
10727000    308.37892    92278.559    51.999273   0.79327152   -882.84266    1988.7974 
10728000    317.66396    92279.394    22.298254   0.79326434   -905.58742    2052.5155 
10729000    309.02819     92280.23    1132.7422   0.79325715   -898.69039    1978.9957 
10730000    315.82989    92281.065    207.94524   0.79324997   -851.14336    2089.8805 
10731000    317.31503      92281.9    808.15267   0.79324279   -887.98347    2066.8702 
10732000    319.75953    92282.736    623.10963   0.79323561   -895.11184    2082.5051 
10733000    312.37465    92283.571    347.19774   0.79322843   -924.61483    1984.2337 
10734000    315.38305    92284.406    1418.7909   0.79322125   -927.40004    2009.4628 
10735000    308.60408    92285.242    641.40535   0.79321407   -854.63716    2019.0997 
10736000    320.44855    92286.077    244.05082   0.79320689   -892.12032    2091.9128 
10737000    311.58292    92286.912   -81.480581   0.79319971   -867.20522    2034.2707 
10738000    313.40846    92287.748    1047.3338   0.79319253   -905.68216    2012.7933 
10739000    306.01807    92288.583   -59.374894   0.79318535   -895.67649    1953.9792 
10740000    317.68445    92289.418   -35.073636   0.79317817   -950.93616    2007.3575 
10741000    309.30837    92290.254    1345.2813     0.793171   -838.06666    2042.2285 
10742000    313.44389    92291.089    210.10249   0.79316382   -924.89373    1993.9116 
10743000    307.36332    92291.924    321.15765   0.79315664   -911.47391    1950.7089 
10744000    312.30378     92292.76    684.89375   0.79314946   -847.96689    2060.2217 
10745000    310.45741    92293.595    1118.1232   0.79314228    -900.3348    1990.6603 
10746000    311.72676    92294.431    133.64532    0.7931351   -913.31379    1989.5015 
10747000     307.6357    92295.266    440.43475   0.79312792   -921.05291    1943.6663 
10748000    309.94445    92296.101    963.25682   0.79312074   -990.81018    1895.4082 
10749000    308.71324    92296.937    905.65395   0.79311356   -935.14301    1939.6103 
10750000    313.81628    92297.772    507.73086   0.79310638   -940.61545    1981.6577 
10751000    311.57988    92298.608    1146.9934    0.7930992   -934.12735    1967.3202 
10752000    302.14988    92299.443    983.10639   0.79309203   -927.68685    1885.9481 
10753000    307.82204    92300.279    826.47487   0.79308485    -878.1356    1988.3188 
10754000    308.68148    92301.114    1004.5413   0.79307767   -864.37535    2010.0822 
10755000    318.55558    92301.949    125.84582   0.79307049   -887.67261     2078.733 
10756000    312.36949    92302.785    287.03763   0.79306331    -881.2531    2027.5474 
10757000    308.57745     92303.62    706.27572   0.79305613   -858.63046    2014.8584 
10758000    307.15807    92304.456     278.5689   0.79304896   -926.91562    1933.3559 
10759000    308.54539    92305.291   -220.45746   0.79304178   -867.05854    2006.1317 
10760000     311.5585    92306.127    31.840714    0.7930346   -833.17674    2068.0718 
10761000    311.75107    92306.962    362.25042   0.79302742   -951.68224    1951.3595 
10762000    306.00501    92307.798    171.56346   0.79302025   -990.88377    1858.6504 
10763000    308.94715    92308.633    380.06081   0.79301307   -992.65246     1884.279 
10764000    310.36547    92309.469   -165.08773   0.79300589   -934.18498    1955.9539 
10765000    313.81079    92310.304    847.15476   0.79299871   -892.49555    2029.7264 
10766000    313.59006     92311.14    1161.6938   0.79299154   -837.47398    2082.6925 
10767000    306.75949    92311.975    307.57736   0.79298436   -814.34072    2042.2192 
10768000    308.48809    92312.811      72.2544   0.79297718   -916.48774     1956.169 
10769000    309.91997    92313.646    -573.4611      0.79297   -862.44949    2023.5409 
10770000    317.03009    92314.482    699.42626   0.79296283   -874.06653    2078.1337 
10771000    312.81607    92315.317    911.47125   0.79295565   -872.29351    2040.6655 
10772000    310.01823    92316.153    739.57658   0.79294847    -915.1121    1971.7933 
10773000    310.51845    92316.988     708.6937    0.7929413   -916.91548    1974.6481 
10774000    311.12418    92317.824    1009.5728   0.79293412   -895.31669    2001.8874 
10775000    310.32349    92318.659    551.95752   0.79292694   -841.67466    2048.0734 
10776000    317.39895    92319.495   -69.115588   0.79291977   -987.82254    1967.8125 
10777000    321.48818     92320.33    769.54485   0.79291259    -963.3489    2030.3653 
10778000    304.20614    92321.166    973.28932   0.79290541   -903.60215    1929.1808 
10779000    307.91531    92322.002    914.68381   0.79289824     -913.651    1953.6719 
10780000    309.18682    92322.837    888.05512   0.79289106   -980.53663    1898.6266 
10781000    308.74404    92323.673    133.47577   0.79288389   -924.57581    1950.4643 
10782000    313.53407    92324.508      399.355   0.79287671    -852.5699    2067.0752 
10783000    306.22185    92325.344    433.65723   0.79286953   -889.29291    1962.2605 
10784000    314.72592    92326.179    570.80219   0.79286236   -940.00422    1990.7394 
10785000    324.11555    92327.015    -1192.408   0.79285518   -898.72242    2119.4579 
10786000    310.87124    92327.851    74.284702   0.79284801   -929.43838    1965.4103 
10787000    305.46881    92328.686    682.80234   0.79284083   -775.71862    2068.8224 
10788000    315.52707    92329.522    2093.5705   0.79283366   -903.52708     2034.677 
10789000    302.60376    92330.357   -192.71297   0.79282648   -888.18343    1929.6781 
10790000    308.09515    92331.193    268.09109   0.79281931    -895.6229    1973.3747 
10791000    309.75431    92332.029    407.04468   0.79281213   -931.34365    1953.1042 
10792000     315.6707    92332.864   -115.52092   0.79280496   -920.83935    2018.7022 
10793000    304.97238      92333.7   -392.60876   0.79279778   -963.96317     1875.955 
10794000    321.72319    92334.536    802.69428   0.79279061   -912.05789    2083.8447 
10795000     303.9879    92335.371    774.48692   0.79278343   -939.53852    1891.2122 
10796000     302.9662    92336.207   -54.581976   0.79277626   -878.14336    1943.0933 
10797000    306.47809    92337.043    43.001335   0.79276908   -876.49774    1977.4418 
10798000    318.83725    92337.878     945.0498   0.79276191   -913.82886    2055.1998 
10799000    310.33496    92338.714   -312.83334   0.79275473    -889.4314    2000.4235 
10800000    315.53798     92339.55    1485.8534   0.79274756    -875.4581    2062.8475 
10801000     313.6305    92340.385    220.28172   0.79274038   -872.25871    2048.2844 
10802000    299.71317    92341.221   -1544.0266   0.79273321   -967.28408    1823.6601 
10803000    320.06519    92342.057    448.43371   0.79272603   -888.17398    2092.2893 
10804000    312.48874    92342.892   -29.932507   0.79271886    -887.3575    2022.5535 
10805000    312.08413    92343.728    93.651531   0.79271169   -857.46931    2048.6739 
10806000    311.40672    92344.564   -5.9566629   0.79270451   -886.00862    2013.8266 
10807000     309.1283    92345.399     40.26971   0.79269734   -863.32563    2015.2927 
10808000     314.7366    92346.235    756.01356   0.79269017    -869.8932    2060.9499 
10809000    312.53997    92347.071     581.6977   0.79268299   -912.33343    1998.0546 
10810000    310.98904    92347.907    130.20566   0.79267582   -852.88625    2043.0594 
10811000    307.56124    92348.742    645.61791   0.79266864   -882.66452    1981.3613 
10812000    315.75882    92349.578    114.83895   0.79266147    -881.3415    2059.0206 
10813000     312.3096    92350.414    558.29085    0.7926543   -895.81857    2012.4243 
10814000    306.09786    92351.249   -66.026913   0.79264713   -896.17595    1954.2228 
10815000    315.98664    92352.085     3.068201   0.79263995   -892.07066    2050.4129 
10816000    310.77247    92352.921   -742.55681   0.79263278   -924.70087    1969.2281 
10817000    317.72786    92353.757    351.24829   0.79262561   -898.74038    2059.9576 
10818000    312.12402    92354.592    926.97658   0.79261843   -932.89183    1973.6229 
10819000    311.43204    92355.428     276.3652   0.79261126   -935.80655    1964.2644 
10820000    311.21474    92356.264    1243.3582   0.79260409   -933.25679    1964.7906 
10821000    307.37052      92357.1    151.73105   0.79259692   -893.90165    1968.3481 
10822000    314.37352    92357.936    1356.1205   0.79258974    -873.9873    2053.4748 
10823000    316.23826    92358.771    338.20999   0.79258257   -927.14887    2017.6778 
10824000    309.81237    92359.607   -352.05754    0.7925754   -952.70391    1932.2845 
10825000    311.21455    92360.443    -493.4129   0.79256823   -918.30841    1979.7373 
10826000    306.55043    92361.279    -54.04519   0.79256105   -971.66544    1882.9477 
10827000     316.0996    92362.115   -76.100193   0.79255388   -989.80452     1953.731 
10828000    313.20106     92362.95   -506.68904   0.79254671   -886.33255    2030.2116 
10829000    309.21282    92363.786    697.06766   0.79253954   -898.41406    1980.9914 
10830000    311.12877    92364.622   -56.838925   0.79253237   -876.92956    2020.3173 
10831000    306.24445    92365.458    735.99701   0.79252519   -930.09013    1921.6737 
10832000    312.53188    92366.294    515.66588   0.79251802   -966.40182    1943.9108 
10833000    315.90854    92367.129    163.86852   0.79251085   -845.98125    2095.7751 
10834000      302.414    92367.965   -475.45428   0.79250368    -933.7695     1882.325 
10835000    301.97423    92368.801   -350.36834   0.79249651   -1005.1936    1806.8058 
10836000    308.34974    92369.637     700.9088   0.79248934    -933.4429    1937.9255 
10837000    311.70173    92370.473    491.04356   0.79248217   -909.27477    1993.3075 
10838000    309.44011    92371.309    944.90197   0.79247499   -897.77857    1983.7433 
10839000    306.23153    92372.145   -251.63076   0.79246782   -956.33651     1895.307 
10840000     311.2097     92372.98     449.9332   0.79246065   -983.54504    1914.4554 
10841000    307.56202    92373.816    31.941362   0.79245348   -1043.6062    1820.4269 
10842000    321.16552    92374.652   -146.45197   0.79244631   -925.54293    2065.1666 
10843000    312.75044    92375.488    449.29263   0.79243914   -956.32076    1956.0272 
10844000    314.01498    92376.324    941.39498   0.79243197   -922.66793    2001.4555 
10845000     310.2238     92377.16    369.76979    0.7924248   -949.71112    1939.1086 
10846000    319.49266    92377.996     79.44546   0.79241763   -1017.6991    1957.4327 
10847000    303.27016    92378.832    148.13921   0.79241046   -895.88863    1928.1784 
10848000    308.19157    92379.668    440.89527   0.79240329   -884.64208    1985.2534 
10849000    313.49656    92380.504   -4.0221508   0.79239612   -961.16888    1958.1269 
10850000    302.35184    92381.339   -96.702877   0.79238895   -890.89131    1924.6243 
10851000    307.72895    92382.175     256.9799   0.79238178   -913.35123    1952.2363 
10852000    313.58107    92383.011    612.27803   0.79237461   -878.23341    2041.8494 
[...]
116250000    311.94625    96660.871    251.67393   0.75730698   -765.24925      2139.61 
116260000    308.02673    95772.796   -26.834457   0.76432928   -732.79282    2135.5676 
116270000    308.98915    95059.134    474.68193   0.77006752   -778.76674    2098.5558 
116280000    307.44758    96943.816   -699.46716   0.75509667   -758.21003    2104.7574 
116290000    306.71869    96119.467   -75.692158    0.7615726   -769.82043    2086.3595 
116300000    315.25733     96492.56    199.60894   0.75862794   -787.15782    2148.5344 
116310000    312.02754     94795.65   -112.92876   0.77220792   -872.45906    2033.1572 
116320000     313.5702    95716.902   -1077.7601   0.76477561   -730.91041    2189.0711 
116330000    311.41462    95482.785   -447.68518   0.76665079    -702.8369    2197.0718 
116340000    315.29319    97517.269   -606.92011    0.7506563   -672.93346    2263.0927 
116350000    300.66155    97746.278   -337.03236   0.74889759   -704.44416    2095.3314 
116360000    323.98592    96964.351   -366.23906   0.75493676   -707.64838    2309.3249 
116370000    299.31087    96166.634   -556.09322   0.76119907    -825.5073    1961.6906 
116380000    309.37652    94832.783   -265.18056   0.77190556   -858.89583    2022.0339 
116390000    309.56114    95815.955   -387.33799     0.763985   -746.60959    2136.0394 
116400000    302.65969    96065.693   -131.00408    0.7619989   -810.74777    2007.6346 
116410000    319.50177    94988.065   -89.177134   0.77064368   -835.30942    2139.9072 
116420000    315.98017    96088.609   -731.11388   0.76181717   -874.93779    2067.4856 
116430000    315.03218    96676.512   -439.95296   0.75718446    -700.2499    2233.3457 
116440000    314.22506    94997.669    129.29248   0.77056577   -794.65326    2131.4264 
116450000    317.08004    96725.563   -311.80609   0.75680048   -729.00589    2223.6595 
116460000     314.0022    95214.457    535.35998   0.76881132   -797.22314    2126.7812 
116470000    307.33288    95085.533   -93.839882   0.76985373   -770.45441    2091.4449 
116480000    314.60238    93750.515   -543.00398   0.78081653   -747.26432     2182.329 
116490000    313.82012    94719.491   -513.64166   0.77282882   -851.19997    2071.1088 
116500000    312.30375    95800.243   -753.61595    0.7641103    -926.7536    1981.4347 
116510000    299.48075     94526.23    635.25797   0.77440888   -816.95641    1971.8235 
116520000    306.85168    95399.159   -453.21172   0.76732283   -900.73457    1956.6838 
116530000    309.28713    95690.132   -95.957139   0.76498956   -749.16062    2130.9368 
116540000    309.74639    96978.952    328.11983    0.7548231    -712.6075    2171.7665 
116550000    311.66648    94208.781    336.23956   0.77701836   -846.46153    2055.7925 
116560000    311.04087    93589.597     213.3853   0.78215907   -845.05901    2051.3693 
116570000    316.23755    95498.951     47.22601   0.76652101   -826.11504     2118.705 
116580000    312.86857    95586.751   -116.21107   0.76581693   -826.08331    2087.3647 
116590000    317.09961    96353.776    522.28087   0.75972064   -739.30138    2213.5462 
116600000    301.98023    96262.118    157.61542   0.76044403   -801.84097    2010.2143 
116610000     316.6634    95634.594   -469.20085   0.76543382   -817.61762    2131.1679 
116620000    316.12331    96070.406    154.28542   0.76196151   -737.76196    2205.9943 
116630000    324.69367    95135.523   -217.52305    0.7694492   -807.09179    2216.4721 
116640000     315.9503    96050.462   -362.47184   0.76211973   -761.65887    2180.4863 
116650000    314.03642    96138.784    866.49126   0.76141958   -788.05404     2136.269 
116660000    312.18141    95856.901   -239.66504   0.76365866   -775.48037    2131.5687 
116670000    305.48861    97852.751    520.95177   0.74808273   -687.39735     2157.328 
116680000    307.31461    95597.796   -23.746628   0.76572845   -745.92234    2115.8069 
116690000    316.55384    97236.134    72.638097   0.75282665    -679.8604    2267.9049 
116700000    307.76416    96605.527   -316.54293   0.75774083    -769.4219    2096.4935 
116710000     311.1416    97162.208   -577.36945   0.75339943   -700.76579    2196.6005 
116720000    312.74205    96188.739   -185.92461   0.76102414   -826.62669    2085.6431 
116730000    306.67534    95507.142    -669.4777   0.76645527   -715.00406    2140.7722 
116740000    310.73726    96252.966    -264.5094   0.76051633   -875.27409     2018.327 
116750000     311.9855    96362.194   -666.65021   0.75965427   -745.65239    2159.5723 
116760000    310.14197    96214.869    890.88732   0.76081746   -785.83911    2102.2186 
116770000    311.84442    95764.525   -111.25317   0.76439529   -795.98257    2107.9285 
116780000    303.61395    95914.542    668.84182   0.76319973   -853.85608    1973.4124 
116790000    307.62152    95867.351   -487.93698   0.76357542   -814.47262    2050.1145 
116800000    320.97992    96038.319    417.60667   0.76221609   -750.37478    2238.6065 
116810000    305.27041    96037.788   -164.22065   0.76222031   -734.79358    2107.8999 
116820000    312.36575    95835.572   -325.36701   0.76382862   -796.80163     2111.964 
116830000    311.40908    95774.729    -743.3216   0.76431385   -799.07375    2100.7833 
116840000     311.6255    96460.298   -45.451043   0.75888167   -768.54593    2133.3265 
116850000    310.88989     95499.76    9.0312364   0.76651452   -788.73263    2106.2898 
116860000    313.10445    96449.712    364.40934   0.75896496   -777.11862    2138.5259 
116870000    312.93116    95266.417   -680.71882     0.768392   -863.85427    2050.1765 
116880000    310.14154     94961.72    131.26699   0.77085748   -730.42367      2157.63 
116890000     315.0701    96136.196    215.97572   0.76144008   -781.40367     2152.545 
116900000    306.79173    96066.519   -35.095326   0.76199235   -774.67152    2082.1886 
116910000    310.56838    96608.827   -820.63215   0.75771495    -809.4817    2082.5467 
116920000    310.65831    96669.818   -76.204857   0.75723689   -725.22186     2167.644 
116930000     314.4121    97393.745   -22.803457   0.75160835   -782.72159    2145.0998 
116940000    309.92714    95832.642    310.15429   0.76385197   -680.90282    2205.1544 
116950000    306.81603     95949.73   -587.29381   0.76291984   -782.90247     2074.184 
116960000    307.15016    95125.468    358.40128   0.76953054   -789.24919    2070.9486 
116970000    303.07923    97270.882    420.85467   0.75255771    -718.1681    2104.1211 
116980000    305.89643    94003.906     575.7247   0.77871181   -761.82239    2086.7006 
116990000    314.77087    94782.013   -271.06655   0.77231903    -786.4427    2144.7196 
117000000    316.83595    96599.699    3.4196463   0.75778655   -681.37161    2269.0207 
117000264    314.91263    96497.228     295.7603   0.75859125   -792.90627     2139.576 
Loop time of 249.221 on 192 procs for 1000000 steps with 3125 atoms

Performance: 346.680 ns/day, 0.069 hours/ns, 4012.502 timesteps/s
99.8% CPU use with 192 MPI tasks x 1 OpenMP threads

MPI task timing breakdown:
Section |  min time  |  avg time  |  max time  |%varavg| %total
---------------------------------------------------------------
Pair    | 31.391     | 33.253     | 35.273     |  12.1 | 13.34
Bond    | 5.7611     | 6.4139     | 7.0925     |   9.4 |  2.57
Neigh   | 22.909     | 23.157     | 23.385     |   1.8 |  9.29
Comm    | 114.43     | 117.94     | 120.82     |   9.7 | 47.32
Output  | 0.0090671  | 0.098567   | 0.099182   |   2.1 |  0.04
Modify  | 55.765     | 57.197     | 58.427     |   7.8 | 22.95
Other   |            | 11.16      |            |       |  4.48

Nlocal:    16.276 ave 24 max 8 min
Histogram: 4 3 10 37 24 55 27 11 19 2
Nghost:    752.823 ave 795 max 718 min
Histogram: 5 20 18 36 42 26 21 14 6 4
Neighs:    1154.59 ave 1758 max 535 min
Histogram: 5 5 16 24 43 45 20 20 12 2

Total # of neighbors = 221681
Ave neighs/atom = 70.9379
Ave special neighs/atom = 5.76
Neighbor list builds = 116282
Dangerous builds = 0
unfix		barostat
write_restart  	restart_files/star.barostat.*

# find the adjustment factor needed to bring rho to the new average rho (target)
variable        averho equal f_dave
variable        adjustrho equal (${rho}/${averho})^(1.0/3.0)
variable        adjustrho equal (0.758591247208575/${averho})^(1.0/3.0)
variable        adjustrho equal (0.758591247208575/0.764204946817557)^(1.0/3.0)

# adjusting to the average rho; pressure would change (slightly)
fix             ensemble all nve
fix             thermostat all langevin ${eqmT} ${eqmT} 100.0 39847
fix             thermostat all langevin 311 ${eqmT} 100.0 39847
fix             thermostat all langevin 311 311 100.0 39847
fix             adjust all deform 1 x scale ${adjustrho} y scale ${adjustrho} z scale ${adjustrho}
fix             adjust all deform 1 x scale 0.997545378493518 y scale ${adjustrho} z scale ${adjustrho}
fix             adjust all deform 1 x scale 0.997545378493518 y scale 0.997545378493518 z scale ${adjustrho}
fix             adjust all deform 1 x scale 0.997545378493518 y scale 0.997545378493518 z scale 0.997545378493518
thermo          10000
thermo_style    custom step temp vol press density pe etotal
run             1000000		# 1 nanoseconds
Per MPI rank memory allocation (min/avg/max) = 9.317 | 9.321 | 9.324 Mbytes
Step Temp Volume Press Density PotEng TotEng 
117000264    314.91263    96497.228     295.7603   0.75859125   -792.90627     2139.576 
117010000     312.5615     96490.31    121.36354   0.75864564   -758.09346     2152.495 
117020000    306.85428    96483.204    365.45948   0.75870151   -723.67804    2133.7646 
117030000    303.06431    96476.099   -214.12311   0.75875738   -798.43596    2023.7143 
117040000    312.71425    96468.994   -232.65825   0.75881326   -813.23504    2098.7758 
117050000    315.06466     96461.89    -509.0486   0.75886915    -782.7619    2151.1361 
117060000    309.06459    96454.786    -45.18793   0.75892504   -746.26807     2131.757 
117070000    308.57638    96447.682    34.782473   0.75898094   -808.59383    2064.8851 
117080000    314.11861    96440.579    120.23445   0.75903684   -770.00486    2155.0835 
117090000    307.46913    96433.476    149.64812   0.75909275   -780.99637    2082.1717 
117100000    307.55884    96426.373    662.84238   0.75914866   -763.47296    2100.5305 
117110000    310.20493    96419.271    136.46003   0.75920458   -830.66446    2057.9795 
117120000    314.45145    96412.169    361.49549   0.75926051   -908.55861    2019.6292 
117130000    309.74531    96405.068    95.716415   0.75931644   -743.56927    2140.7947 
117140000    307.10262    96397.967    88.477346   0.75937237   -751.27347    2108.4817 
117150000    310.11529    96390.866   -142.21672   0.75942831    -800.6161    2087.1932 
117160000    311.24416    96383.765    268.67077   0.75948426   -758.75105    2139.5703 
117170000    301.15876    96376.665     5.384442   0.75954021    -833.9554    1970.4502 
117180000     309.4124    96369.565   -614.51856   0.75959617   -695.96851    2185.2954 
117190000    312.21215    96362.466    25.364392   0.75965213   -866.50466    2040.8307 
117200000    302.99357    96355.366     308.1373    0.7597081   -817.27372    2004.2177 
117210000    303.22495    96348.268   -837.17733   0.75976407   -798.53625    2025.1098 
117220000    307.00657    96341.169   -478.17633   0.75982005   -881.31352    1977.5472 
117230000    310.89577    96334.071    608.91596   0.75987604   -798.92238    2096.1548 
117240000    313.02651    96326.973   -445.82687   0.75993203   -757.44318    2157.4755 
117250000    309.91766    96319.876    250.62015   0.75998803   -675.17316    2210.7958 
117260000    317.98166    96312.779    361.60799   0.76004403   -716.41469    2244.6466 
117270000    305.25577    96305.682    149.79102   0.76010003   -787.11874    2055.4384 
117280000    317.97746    96298.586   -353.92905   0.76015605   -691.29241    2269.7298 
117290000     315.3474     96291.49    239.02115   0.76021206   -793.44998     2143.081 
117300000    304.59422    96284.394   -169.18958   0.76026809   -768.08834    2068.3085 
117310000     324.0791    96277.299    -58.98922   0.76032412   -684.26447    2333.5765 
117320000    307.42944    96270.204   -128.54547   0.76038015   -796.74099    2066.0575 
117330000    312.18812    96263.109    525.30528   0.76043619   -771.74459     2135.367 
117340000     312.7485    96256.015    33.212624   0.76049224   -829.74654    2082.5833 
117350000    315.47494    96248.921   -525.54687   0.76054829   -806.57755    2131.1411 
117360000    310.03585    96241.828    -164.1271   0.76060435   -835.51417    2051.5554 
117370000     316.1845    96234.735    644.98553   0.76066041   -747.54397    2196.7821 
117380000    313.12788    96227.642   -609.25277   0.76071648   -770.64939    2145.2133 
117390000    315.38264    96220.549    220.73252   0.76077255   -723.35255    2213.5065 
117400000    309.04086    96213.457   -302.81744   0.76082863   -732.17507     2145.629 
117410000    315.75904    96206.365   -183.44355   0.76088471   -810.87148    2129.4926 
117420000    311.27497    96199.274   -214.65801    0.7609408   -811.69463    2086.9136 
117430000    315.77258    96192.183    529.46077    0.7609969   -700.77108    2239.7192 
117440000    310.15836    96185.092   -671.31187     0.761053   -703.39115    2184.8192 
117450000    315.22812    96178.001    -128.9401    0.7611091   -749.56502    2185.8552 
117460000     306.5697    96170.911    376.32179   0.76116521   -751.36751    2103.4251 
117470000    312.92261    96163.822    40.475375   0.76122133   -787.47501    2126.4761 
117480000    313.29144    96156.732   -499.24055   0.76127745   -733.33252    2184.0532 
117490000    310.67221    96149.643   -782.72443   0.76133358   -751.50648    2141.4888 
117500000    306.76051    96142.555    -206.7101   0.76138972   -732.17349    2124.3959 
117510000    310.17565    96135.466   -891.14839   0.76144586   -628.91208    2259.4593 
117520000    311.43187    96128.378   -306.68717     0.761502   -690.57555    2209.4938 
117530000     307.0903    96121.291   -398.69229   0.76155815   -765.73191    2093.9085 
117540000    315.34283    96114.203   -350.53488   0.76161431   -758.92815    2177.5603 
117550000    308.31094    96107.116   -496.20583   0.76167047   -733.33298    2137.6741 
117560000    318.23733     96100.03    871.19134   0.76172664   -825.31769    2138.1244 
117570000    314.31686    96092.944   -120.88534   0.76178281   -732.73629    2194.1982 
117580000    306.72615    96085.858   -159.07762   0.76183899   -771.14279    2085.1067 
117590000    314.15457    96078.772    138.35515   0.76189517   -741.79441    2183.6288 
117600000    317.08682    96071.687    301.05639   0.76195136   -812.70098    2140.0275 
117610000    311.19059    96064.602   -439.85585   0.76200755   -654.45502    2243.3675 
117620000    313.50834    96057.518    33.284072   0.76206375   -704.83739    2214.5681 
117630000     304.7224    96050.433   -837.73438   0.76211996   -787.80469    2049.7858 
117640000     311.7679     96043.35    59.868505   0.76217617   -719.98633    2183.2121 
117650000    311.54311    96036.266    -276.9863   0.76223239   -675.13686    2225.9683 
117660000    305.99177    96029.183    749.33437   0.76228861   -699.53374    2149.8771 
117670000    306.24232      96022.1    325.96049   0.76234484   -756.70729    2095.0366 
117680000    308.07562    96015.018    256.36059   0.76240107   -720.52747    2148.2883 
117690000    310.94555    96007.936   -359.58131   0.76245731   -756.40883    2139.1318 
117700000    313.51695    96000.854   -4.8878083   0.76251355   -732.35984    2187.1258 
117710000    302.83266    95993.773   -379.83807    0.7625698   -818.97604     2001.017 
117720000    312.59214    95986.692    -277.2918   0.76262606   -755.26892    2155.6049 
117730000     311.7644    95979.611    572.80424   0.76268232   -817.49215    2085.6737 
117740000    309.88527    95972.531    634.53152   0.76273859   -835.50301    2050.1643 
117750000    315.01604    95965.451   -298.66375   0.76279486   -850.08455    2083.3607 
117760000    309.35148    95958.371    5.1702281   0.76285113   -865.15348    2015.5431 
117770000    314.61415    95951.292    430.65677   0.76290742   -917.69513    2012.0077 
117780000    307.28358    95944.213    581.54649   0.76296371   -763.34512    2098.0951 
117790000    317.15798    95937.134     392.6808      0.76302   -783.55664    2169.8345 
117800000    310.46841    95930.056     320.7531    0.7630763   -804.98141    2086.1161 
117810000    306.14378    95922.978   -32.592204   0.76313261   -788.75447    2062.0719 
117820000    319.86102    95915.901    134.68011   0.76318892   -846.32984    2132.2321 
117830000    313.52254    95908.824   -186.79777   0.76324523     -843.614    2075.9237 
117840000    316.61747    95901.747    27.096432   0.76330155   -779.52158    2168.8363 
117850000     308.2145     95894.67    407.02053   0.76335788   -788.87393    2081.2351 
117860000    320.41435    95887.594    578.56181   0.76341421   -657.10099    2326.6136 
117870000    321.34343    95880.518    483.00521   0.76347055   -744.75757    2247.6087 
117880000    314.79437    95873.443    -465.0997    0.7635269   -787.22234    2144.1587 
117890000    311.79855    95866.368    -151.6605   0.76358325   -712.27428    2191.2096 
117900000    308.38852    95859.293   -119.57361    0.7636396   -736.34541    2135.3841 
117910000    306.97907    95852.219    789.75289   0.76369596   -723.80021    2134.8045 
117920000     317.5985    95845.145    420.41093   0.76375233   -848.06815    2109.4252 
117930000    308.58029    95838.071    3.6100772    0.7638087   -750.68065    2122.8346 
117940000    310.16009    95830.998   -50.769533   0.76386508   -762.64998    2125.5764 
117950000    306.64657    95823.925    86.249417   0.76392146   -827.06723    2028.4412 
117960000     313.1738    95816.852   -137.37052   0.76397785   -775.77098    2140.5193 
117970000    305.66597     95809.78     431.3601   0.76403424   -739.82466    2106.5523 
117980000     308.6136    95802.708    388.43351   0.76409064   -723.04348    2150.7819 
117990000    306.32014    95795.636   -21.096936   0.76414705   -873.88765     1978.581 
118000000    316.49962    95788.565    652.76612   0.76420346   -743.18359    2204.0769 
118000264    308.84476    95788.378   -941.56008   0.76420495   -691.06558    2184.9125 
Loop time of 207.376 on 192 procs for 1000000 steps with 3125 atoms

Performance: 416.634 ns/day, 0.058 hours/ns, 4822.149 timesteps/s
99.8% CPU use with 192 MPI tasks x 1 OpenMP threads

MPI task timing breakdown:
Section |  min time  |  avg time  |  max time  |%varavg| %total
---------------------------------------------------------------
Pair    | 22.024     | 29.052     | 36.515     |  41.6 | 14.01
Bond    | 3.0789     | 5.3866     | 7.8363     |  34.6 |  2.60
Neigh   | 22.143     | 22.396     | 22.606     |   1.9 | 10.80
Comm    | 107.02     | 117.2      | 126.32     |  28.3 | 56.52
Output  | 0.015905   | 0.14879    | 0.1496     |   2.5 |  0.07
Modify  | 14.967     | 15.33      | 16.334     |   3.9 |  7.39
Other   |            | 17.86      |            |       |  8.61

Nlocal:    16.276 ave 24 max 8 min
Histogram: 5 9 14 30 22 42 38 11 14 7
Nghost:    759.104 ave 796 max 713 min
Histogram: 2 1 9 25 35 42 39 21 14 4
Neighs:    1166.04 ave 1724 max 534 min
Histogram: 5 7 19 23 35 31 27 22 11 12

Total # of neighbors = 223879
Ave neighs/atom = 71.6413
Ave special neighs/atom = 5.76
Neighbor list builds = 112590
Dangerous builds = 0
unfix           ensemble
unfix           thermostat
unfix           adjust

write_restart   restart_files/star.T${eqmT}K.P${Pout}MPa.*
write_restart   restart_files/star.T311K.P${Pout}MPa.*
write_restart   restart_files/star.T311K.P0.1MPa.*

#shell		sh cleanlog.sh	# a script I wrote to clean the log.lammps file into just the thermodynamics data. commented out
Total wall time: 6:27:53
