LAMMPS (10 Feb 2015)
Read molecule SQL:
  30 atoms with 4 types
  29 bonds with 1 types
  34 angles with 1 types
  31 dihedrals with 2 types
  6 impropers with 1 types
Reading restart file ...
  restart file = 28 Jun 2014, LAMMPS = 10 Feb 2015
  triclinic box = (111.252 111.252 111.252) to (158.748 158.748 158.748) with tilt (1.84741e-13 0 0)
  3 by 4 by 4 MPI processor grid
  3750 atoms
  3625 bonds
  4250 angles
  3875 dihedrals
  750 impropers
250 atoms in group endatoms
Resetting global state of Fix shear1 Style nvt/sllod from restart file info
Neighbor list info ...
  1 neighbor list requests
  update every 1 steps, delay 0 steps, check yes
  master list distance cutoff = 10.3
Setting up run ...
Memory usage per processor = 5.6989 Mbytes
Step dummytim Temp Volume Press Density PotEng TotEng Pxx Pyy Pzz Pxy Pyz Pxz myT molPE1 molPE2 molPE3 molPE4 molPE5 molPE6 
410000000      4.1e+08    297.14517       107143    4.0892043   0.81907956   -866.00929    2454.6049   -61.105938      -129.72    203.09355    114.73236   -187.49271    470.32915    297.16073   -4277.6877    1089.4733    1164.5737    1041.3239    116.30752            0 
410100000    4.101e+08    293.75699       107143    225.23216   0.81907956   -898.19581    2384.5552    456.83133    237.72925   -18.864094    245.09499   -199.19843    29.058728    293.77315   -4259.5191    1057.8954    1130.1848    1068.9229    104.32021            0 
410200000    4.102e+08    297.21162       107143    83.734474   0.81907956   -805.57422    2515.7825   -81.402813   -353.28365    685.88988    421.72874   -189.38275   -888.80634    297.22689   -4279.2053    1075.1569    1196.4694    1089.2932    112.71164            0 
410300000    4.103e+08    288.40384       107143     199.0292   0.81907956   -925.45158    2297.4777    412.50765    627.02004    -442.4401   -308.21051    282.92641   -1.7845482    288.41864   -4239.6314    1034.9837    1139.5891    1036.8145    102.79256            0 
410400000    4.104e+08     297.9516       107143    325.77354   0.81907956   -1002.5795    2327.0465    900.14489   -88.952569    166.12831   -137.14778    190.50751   -436.17946    297.96875   -4293.4298    1021.3488    1101.6286    1061.7561    106.11676            0 
410500000    4.105e+08    300.54842       107143   -537.78261   0.81907956   -888.53016    2470.1156     161.9943   -299.46051   -1475.8816   -695.78548    399.99602   -68.127665    300.56452   -4282.4685    1039.6538    1183.9926    1054.9617    115.33013            0 
410600000    4.106e+08    293.62326       107143   -27.755938   0.81907956   -895.36076    2385.8959   -205.82703    197.61181   -75.052589   -143.60802    397.29681    8.1847123    293.64019   -4281.0242    1070.0977    1148.2376     1053.657    113.67117            0 
410700000    4.107e+08    288.31517       107143   -2.0704502   0.81907956   -801.38671    2420.5517   -227.34499    121.25356    99.880087   -219.33816    171.79879    350.21958    288.33035   -4260.7452    1071.0018    1169.1567    1110.0935    109.10643            0 
410800000    4.108e+08    295.00569       107143   -394.70462   0.81907956   -834.35822    2462.3472   -830.54391   -748.30928    394.73933    335.48389    26.664969    108.51359    295.02255    -4251.052    1057.6813    1159.2301    1095.2108    104.57153            0 
410900000    4.109e+08    296.32971       107143    156.84657   0.81907956   -894.98161    2416.5198   -615.45347    108.87395    977.11923    160.63401     812.0821   -600.02255     296.3475   -4272.7843    1058.2186    1166.7576    1044.5709    108.25564            0 
411000000     4.11e+08    293.20922       107143    281.24263   0.81907956   -944.94746    2331.6822    545.14732   -351.17665    649.75721    738.14511   -505.91638   -923.69432    293.22631   -4295.8451    1077.3494    1117.4998    1037.6212     118.4272            0 
411100000    4.111e+08    290.97051       107143   -63.506765   0.81907956   -888.07942    2363.5325   -471.49846    723.15012   -442.17196    743.73225   -298.21776   -131.75135    290.98586    -4282.416    1083.5567    1129.9801    1065.3485    115.45121            0 
411200000    4.112e+08     295.0245       107143   -701.74255   0.81907956   -929.31929    2367.5963   -856.54059   -396.48534   -852.20173    298.15553   -250.91877   -34.640491     295.0407   -4284.5794     1062.985     1141.594    1033.9749    116.70618            0 
411300000    4.113e+08    293.86996       107143   -658.15626   0.81907956   -927.06347      2356.95   -974.52882   -391.60826   -608.33171    -345.6139   -55.487655   -698.17176    293.88521   -4317.0288    1068.9987    1110.3803    1105.6655    104.92083            0 
411400000    4.114e+08    290.02187       107143   -358.58205   0.81907956   -945.89887     2295.112    157.12526   -330.89024   -901.98118   -276.27789   -514.56854   -233.44567    290.03772   -4296.6793     1057.388    1147.4745    1033.4435    112.47437            0 
411500000    4.115e+08    292.60035       107143    183.88599   0.81907956   -922.38465    2347.4409    147.79572    -417.0396    820.90185   -119.17874    109.66636    460.15709    292.61735   -4297.9742    1067.3782    1141.9807    1065.8294    100.40125            0 
411600000    4.116e+08    295.93869       107143   -819.73419   0.81907956   -931.37634    2375.7553   -152.21835   -956.24212   -1350.7421    59.107293    542.87673     253.7717     295.9537   -4313.2504    1057.1908    1117.4807    1094.0645    113.13808            0 
411700000    4.117e+08    293.26789       107143    171.91115   0.81907956   -935.49443    2341.7909   -377.82585  -0.14167797    893.70098    402.36675   -150.33351     503.0785    293.28211    -4294.635    1053.1468    1139.4097    1061.1704    105.41372            0 
411800000    4.118e+08    293.44808       107143     295.7154   0.81907956   -953.98756    2325.3115    155.82454    66.556183    664.76547   -21.391264    531.85149    -134.7626    293.46308     -4276.01    1031.8575    1129.3928    1047.8055    112.96673            0 
411900000    4.119e+08    303.74638       107143   -1075.9162   0.81907956   -972.28857    2422.0945   -1504.2347   -708.85677   -1014.6571    371.12691    246.17941   -49.339095    303.76146   -4308.3317    1040.0402    1150.9899    1038.4247     106.5884            0 
412000000     4.12e+08    293.85279       107143   -786.63936   0.81907956   -962.28513    2321.5365   -795.18135   -305.34641   -1259.3903    129.21376    209.09509    62.037104    293.87024   -4286.3243    1058.2223    1108.3203    1059.6309    97.865646            0 
412100000    4.121e+08    292.23511       107143    22.298799   0.81907956   -934.51235    2331.2316    465.41451    476.41574   -874.93385   -371.87404   -235.00165    1012.6584    292.25151   -4296.8169     1028.664    1144.9993    1082.4255    106.21577            0 
412200000    4.122e+08    293.34168       107143    99.213366   0.81907956   -921.54521    2356.5647    13.307657    52.474001    231.85844    268.03872    217.92041   -198.68996    293.35449   -4299.8928    1068.0273    1129.4259    1075.2335    105.66094            0 
412300000    4.123e+08    296.46701       107143    -105.5794   0.81907956   -860.31052    2452.7251   -17.205476   -550.60397    251.07126   -392.39968    333.24932   -187.82978    296.48161   -4291.0179    1043.3296    1147.8454    1138.0127    101.51972            0 
412400000    4.124e+08    293.48337       107143    44.498142   0.81907956   -910.13728    2369.5561   -153.05418   -240.85879     527.4074   -562.40253    616.59855   -232.46835    293.49871   -4266.0562    1040.2557     1154.616    1051.9489    109.09827            0 
412500000    4.125e+08     293.0966       107143   -698.98194   0.81907956   -998.00168    2277.3695   -1102.9007    154.62416   -1148.6693    55.264694    135.02294   -107.38873    293.11121   -4335.2731     1045.805    1152.2438      1019.92    119.30264            0 
412600000    4.126e+08    291.47024       107143    139.36123   0.81907956   -897.82482    2359.3717    36.542892    333.56432    47.976486    189.63288     -65.5116   -39.182179    291.48849   -4299.0085     1054.685    1163.8167    1060.6773    122.00469            0 
412700000    4.127e+08    288.36581       107143    502.39797   0.81907956   -944.01387    2278.4904    337.80918    657.96298    511.42175    -197.3365    196.17993   -12.754461    288.38112   -4291.1607    1033.1987    1150.8737    1053.2925    109.78186            0 
412800000    4.128e+08    293.59982       107143   -56.009649   0.81907956    -931.6392    2349.3555    766.59555   -1671.0101    736.38556    23.265032    549.40198    226.02371    293.61495   -4318.8063    1107.5775    1131.7332    1038.2758    109.58066            0 
412900000    4.129e+08    297.91967       107143    130.85093   0.81907956   -948.38624     2380.883   -285.67986    103.13965      575.093    230.31076   -521.11511    241.57906    297.93644   -4278.8791    1046.9328    1097.9408    1080.6925    104.92681            0 
413000000     4.13e+08    291.34799       107143   -469.86069   0.81907956   -922.40253    2333.4278    -183.5436    -697.3248   -528.71366   -721.27135    621.70425    100.67851    291.36393   -4293.6692     1072.977    1129.6534    1056.5761    112.06023            0 
413100000    4.131e+08    293.60875       107143    63.386847   0.81907956   -937.06046     2344.034    56.639931    473.23224   -339.71163   -484.37732   -186.66884   -175.82572     293.6249   -4267.2007    1007.0465    1134.2127    1089.7041    99.177034            0 
413200000    4.132e+08    298.87338       107143    633.94281   0.81907956   -914.73367    2425.1933    679.88433   -341.11707    1563.0612    186.03801    665.05648    615.75068    298.89046   -4273.2401    1056.3912    1131.1552    1063.0378    107.92223            0 
413300000    4.133e+08    294.13832       107143    208.76337   0.81907956    -973.2032    2313.8093   -371.64501    595.58474    402.35037   -239.52881   -94.568543    330.14869    294.15174    -4273.663    1057.8761    1112.5327    1012.7034     117.3476            0 
413400000    4.134e+08    299.92621       107143    341.13078   0.81907956    -938.8109    2412.8816    649.85219    37.162152    336.37801   -134.42671   -347.28532    32.334678    299.94183   -4314.2902    1100.6409    1129.3763    1039.8585    105.60371            0 
413500000    4.135e+08    296.35632       107143    -411.0186   0.81907956   -900.53777    2411.2609   -69.557832   -561.19356   -602.30442    306.74646    680.05376    -481.5025    296.37193   -4273.3544    1065.6103    1122.7128    1078.9053    105.58824            0 
413600000    4.136e+08    296.15453       107143   -125.25153   0.81907956    -955.2034    2354.3404   -459.97113    258.03949   -173.82294   -455.20354    30.769392   -908.70594    296.16955   -4285.7635    1034.4971    1142.7652    1041.5857    111.71209            0 
413700000    4.137e+08    302.78849       107143    230.13934   0.81907956   -940.95206    2442.7265     101.0923    546.39735    42.928353     82.60251    16.800933    331.53936    302.80346   -4292.9135    1066.2772    1131.6588    1054.3317    99.693677            0 
413800000    4.138e+08    298.07774       107143   -728.70484   0.81907956   -896.81027    2434.2254   -1514.4884    -375.7521   -295.87397    285.40794    391.74935    22.014607    298.09315   -4274.6788    1070.5355    1127.6264    1080.1701    99.536432            0 
413900000    4.139e+08    291.97738       107143    735.33479   0.81907956    -890.8536    2372.0102    891.17278    521.16629    793.66529     312.8874    82.865559    283.64499     291.9919   -4285.5297    1068.0931    1157.3069    1065.9345    103.34156            0 
414000000     4.14e+08    298.01618       107143    -495.6424   0.81907956   -887.18012    2443.1676    240.57091   -1137.9442   -589.55391    141.72573     223.6501    611.23163     298.0337   -4282.4964    1031.2956    1157.0667    1097.3617    109.59221            0 
414100000    4.141e+08    290.77698       107143   -765.37816   0.81907956   -985.33445    2264.1149   -1204.9168   -760.70125   -330.51645   -171.35028   -262.59803    101.75187    290.79212   -4301.3451    1046.5569    1134.5017    1021.0465     113.9056            0 
414200000    4.142e+08    288.93401       107143    82.108043   0.81907956   -847.81025    2381.0438   -383.79191    444.49771    185.61833   -379.27516    148.41824    25.358316    288.95034   -4285.8296    1089.8532    1155.2025    1078.8079     114.1557            0 
414300000    4.143e+08    287.13729       107143    -710.5712   0.81907956   -889.12124    2319.6543   -832.84281   -1035.8555   -263.01529    543.43634    68.595918   -452.88278    287.15542   -4318.3101    1103.6613     1145.777    1064.1857    115.56482            0 
414400000    4.144e+08    295.96524       107143    466.51395   0.81907956   -907.29202    2400.1363    94.324777     758.9035    546.31359    14.017153   -60.980241    121.47797    295.98131   -4291.0229    1064.3128    1116.1341    1086.8998     116.3842            0 
414500000    4.145e+08    294.42418       107143    88.994321   0.81907956   -920.90828    2369.2987     638.1757   -520.96572    149.77298   -206.56424    282.86207    122.76803    294.43906   -4283.4669    1087.1899    1129.9121    1032.1736    113.28306            0 
414600000    4.146e+08    297.53571       107143    -5.247445   0.81907956   -903.88938    2421.0891    106.78067   -545.61234    423.08933   -200.67756    411.49297    444.59265    297.55188   -4296.8334     1073.294    1144.9294    1059.6111    115.10948            0 
414700000    4.147e+08    290.40048       107143   -249.84629   0.81907956   -918.72931    2326.5126    136.45848    -14.00427    -871.9931    -110.0813   -288.37874    105.70007    290.41685    -4280.599    1087.3077    1095.2147    1071.1001     108.2472            0 
414800000    4.148e+08    293.15786       107143   -1136.8458   0.81907956   -931.62438    2344.4314   -906.91222   -1396.7061   -1106.9193    45.045465    304.15803   -135.18099    293.17399   -4296.6038    1003.8774    1142.7208    1106.6589    111.72233            0 
414900000    4.149e+08    299.79978       107143    782.55537   0.81907956   -900.79258     2449.487    434.72228    1184.4679    728.47594   -800.34549   -197.86887    555.26848    299.81677   -4290.9194    1043.7008    1172.5333     1066.882    107.01073            0 
415000000     4.15e+08    295.27759       107143    227.92899   0.81907956   -922.67341    2377.0705    589.60866   -74.296487    168.47481   -228.45267   -76.120454    217.86387     295.2936   -4292.4976    1079.2805    1170.3628     1014.305    105.87587            0 
415100000    4.151e+08     295.5539       107143     325.8989   0.81907956   -885.04694    2417.7847    884.39879   -579.19347    672.49137   -357.85983   -398.56121    -228.5502    295.56947   -4304.2279    1083.5447    1151.0319    1071.1574    113.44688            0 
415200000    4.152e+08    295.02691       107143   -585.86222   0.81907956    -917.5197    2379.4228   -271.48836   -636.09483   -850.00348   -327.42214   -5.8459073   -64.567692    295.04247   -4294.4458    1046.4542    1165.1785    1050.5351    114.75833            0 
415300000    4.153e+08      291.045       107143   -38.557465   0.81907956   -952.84589    2299.5985    85.847335   -611.59287    410.07314     201.3014    283.72597   -319.41591     291.0615   -4269.3635    1039.7175    1126.9869    1037.0383    112.77492            0 
415400000    4.154e+08    298.37068       107143    452.68995   0.81907956   -931.89747    2402.4118    302.14835    326.82973    729.09176    400.76779   -9.5549505   -827.19712    298.38562   -4293.7252     1034.125    1173.1926    1035.4119    119.09833            0 
415500000    4.155e+08    295.65906       107143   -312.92908   0.81907956   -954.21137    2349.7955     545.2776   -1030.6197   -453.44515    605.27443   -599.57669   -100.87683    295.67428   -4328.7597    1044.1353    1167.4949    1052.4666     110.4516            0 
415600000    4.156e+08    290.56231       107143     980.8931   0.81907956   -897.76738     2349.283    695.36479    1051.1512    1196.1633    178.71216    783.81259   -102.22942    290.57636   -4275.7959    1087.0908    1135.3502    1045.0901    110.49752            0 
415700000    4.157e+08     301.2633       107143    39.755237   0.81907956   -940.94301    2425.6915     370.9284    36.853357   -288.51604    233.58365    101.36756    212.79956    301.27925   -4303.4842    1073.1643    1123.2429    1057.2318    108.90211            0 
415800000    4.158e+08    286.61605       107143   -90.599913   0.81907956   -916.61079    2286.3399   -897.36162     -315.437    940.99888   -244.35469    13.796463   -352.97516    286.63011   -4272.8902    1074.6211    1114.8286    1061.9406    104.88907            0 
415900000    4.159e+08    296.48785       107143   -1258.2673   0.81907956   -965.50325    2347.7653   -860.06599   -1888.6113   -1026.1244   -524.07199   -546.56691    20.422979    296.50427   -4304.5299    1067.3318    1159.5701    1013.3238     98.80104            0 
416000000     4.16e+08    297.03168       107143    133.95479   0.81907956    -922.4383    2396.9076   -95.307671    -94.61053    591.78257    580.25347   -200.81703     120.4323    297.04883   -4281.5781    1026.9829    1166.1626     1049.907    116.08731            0 
416100000    4.161e+08    294.56749       107143   -80.671383   0.81907956   -902.63208    2389.1763   -193.98027    308.36916   -356.40303    -259.1061   -314.27591    19.586919    294.58204   -4285.2822    1030.6038    1200.4797    1033.8385    117.72806            0 
416200000    4.162e+08    291.34095       107143    11.408472   0.81907956   -949.08678     2306.665    506.26984    28.847692   -500.89211    37.098163    320.44563   -112.71063    291.35614   -4282.0587    1033.9264    1157.1894    1033.0432    108.81296            0 
416300000    4.163e+08    294.00697       107143     593.6684   0.81907956   -959.09476    2326.4498    1358.1168    276.32715    146.56126   -594.53091   -640.50587   -228.66009    294.02212   -4292.4225    1076.8898    1106.5876    1035.8802    113.97019            0 
416400000    4.164e+08    291.93596       107143    505.07034   0.81907956   -910.25646    2352.1445    602.76458    401.32603     511.1204   -135.75255    337.77768   -40.913497    291.95144   -4296.9482    1062.4219    1139.1486    1076.9493    108.17193            0 
416500000    4.165e+08    294.69482       107143   -144.93191   0.81907956   -877.31751    2415.9139    255.99066   -719.64878    28.862393    78.748512   -1017.7381    -44.61621    294.71058   -4297.4916    1097.5781    1161.1423    1059.3018    102.15201            0 
416600000    4.166e+08    304.07855       107143     26.08599   0.81907956   -853.44046    2544.6547     689.7304    542.24876   -1153.7212    53.191374   -254.73008   -37.037838    304.09477   -4271.1353    1105.1382    1132.6579    1072.6461    107.25263            0 
416700000    4.167e+08    291.26619       107143   -92.424795   0.81907956   -956.05032    2298.8659   -636.19653    39.599818    319.32232    557.72107   -822.68512    143.89569    291.28227   -4292.6969    1041.4936    1154.4726    1036.0288    104.65156            0 
416800000    4.168e+08    289.80404       107143    187.66755   0.81907956   -869.05529    2369.5214    738.57197    -211.2312    35.661882    -282.4995    -112.3127     453.7593    289.81893   -4298.9002    1064.8974    1152.4561    1106.5512     105.9401            0 
416900000    4.169e+08    295.43183       107143    291.90494   0.81907956   -823.73725    2477.7302    231.65823   -259.97622    904.03282    79.219117    10.329876    -135.7411    295.44777   -4259.1033    1070.5858    1145.5019    1114.5866    104.69176            0 
417000000     4.17e+08    289.58474       107143   -118.65026   0.81907956    -869.8976    2366.2283    278.88176   -440.56737   -194.26517    202.68196   -229.36345    157.50706    289.60003   -4302.4789    1078.6659    1193.0809    1054.2346    106.59993            0 
417100000    4.171e+08    297.58879       107143   -344.21024   0.81907956   -920.56933    2405.0023   -518.39664   -455.34365   -58.890415   -109.73492    312.57876   -566.30605    297.60378   -4302.5503    1034.0675    1140.1943    1096.3613    111.35793            0 
417200000    4.172e+08    288.05242       107143   -115.32814   0.81907956   -889.44335    2329.5589    204.18267    -295.6111     -254.556    -223.4101    768.58377   -752.93476    288.06749   -4280.5184    1036.2731    1184.9972    1050.1158    119.68884            0 
417300000    4.173e+08    286.88376       107143   -94.449063   0.81907956   -886.68972    2319.2526   -38.033591   -258.10746    12.793855     -321.698     81.96129   -395.23676    286.89865    -4275.524    1070.6075    1154.3175    1052.6073    111.30209            0 
417400000    4.174e+08    293.92757       107143   -359.13027   0.81907956   -958.49401    2326.1633    -206.0333    449.90302   -1321.2605   -111.23561   -430.76638   -255.88232    293.94156   -4302.3213    1024.6814    1151.5021    1062.4657    105.17804            0 
417500000    4.175e+08    289.13248       107143   -632.96893   0.81907956   -904.21728    2326.8546   -949.44997    178.98053   -1128.4374    540.64335    206.34338   -240.54698    289.14735   -4299.4602    1065.3233    1137.6876    1084.0863    108.14563            0 
417600000    4.176e+08    292.06077       107143     555.7434   0.81907956   -943.37414    2320.4216    172.85937    1343.1352    151.23565   -677.58502    737.15608   -370.88543    292.07754    -4322.131    1053.8966    1141.6972    1080.6008    102.56234            0 
417700000    4.177e+08     296.8607       107143    146.67776   0.81907956   -1015.4161    2302.0191    190.73428    391.54063   -142.24164   -59.137729    61.410014   -512.92368    296.87665   -4328.3806    1025.4703    1106.4658    1073.8953    107.13305            0 
417800000    4.178e+08    288.11317       107143    571.36904   0.81907956   -903.50069    2316.1804    1202.3674    90.129398    421.61031   -132.45702    219.89438    399.29489    288.13003      -4296.1    1083.4757    1155.2581    1046.3154    107.55006            0 
417900000    4.179e+08    287.76615       107143    231.34859   0.81907956   -938.13252    2277.6706    809.82519   -375.70725    259.92784    242.24076    -107.5923    542.36612    287.78099   -4254.8676     1039.575    1115.2021    1053.0232    108.93478            0 
418000000     4.18e+08     294.8594       107143   -54.230602   0.81907956    -880.7868    2414.2838   -127.04135   -127.88745    92.236999   -344.27791    6.0753296    304.95647    294.87504   -4289.7972    1064.5271     1154.709    1086.2476    103.52673            0 
418100000    4.181e+08     285.3469       107143    -609.8254   0.81907956   -904.49746    2284.2704    -652.5413   -605.69262   -571.24228    597.50613    114.60448    49.279914    285.36213   -4320.1987    1059.3054    1190.5056    1062.9422    102.94791            0 
418200000    4.182e+08     289.7988       107143    205.30817   0.81907956   -907.48686    2331.0312    743.70345   -142.90525    15.126314   -809.81015    922.93351   -14.291049     289.8155   -4288.0009    1023.5355     1157.996    1081.9153    117.06726            0 
418300000    4.183e+08    292.68215       107143    -354.4054   0.81907956   -855.27311    2415.4666   -138.90031    44.718483   -969.03436     75.01381    235.07013   -134.86573    292.69676   -4271.2001    1097.9907    1117.1659    1083.9412    116.82923            0 
418400000    4.184e+08    299.43551       107143    159.80593   0.81907956   -876.08176    2470.1271   -360.48275    278.88127    561.01926    172.34886    -248.0492   -853.84383    299.45119   -4259.4183    1047.7427    1171.9344    1046.8102    116.84921            0 
418500000    4.185e+08    289.27801       107143   -652.04439   0.81907956   -972.93068    2259.7675   -601.52512   -989.30262   -365.30543   -580.25674    145.80726    181.14358    289.29472   -4293.3712    1014.5249    1138.7127    1063.0933    104.10962            0 
418600000    4.186e+08    296.82419       107143    28.388324   0.81907956   -900.97301    2416.0542    428.83209   -347.43514    3.7680296    -398.5477   -306.10966    -689.3408    296.83838   -4303.4801    1077.8604    1146.5159    1067.3323    110.79845            0 
418700000    4.187e+08    300.43736       107143    -411.2595   0.81907956   -1005.8679    2351.5366   -698.43627    64.485909   -599.82814   -1080.1606   -735.67578   -355.32539    300.45627   -4284.4232    1016.1258    1165.9159    993.91675    102.59693            0 
418800000    4.188e+08    297.05305       107143   -677.67113   0.81907956   -920.89131    2398.6934   -795.61353    -1063.824   -173.57584    228.20755   -463.82333   -122.39525    297.06753   -4280.8635    1023.3632    1145.8966    1084.9689     105.7436            0 
418900000    4.189e+08    293.74487       107143   -425.17841   0.81907956   -918.74988    2363.8658   -1157.4198    116.66941   -234.78482   -202.09536   -466.66146   -123.19757    293.76233   -4275.5077     1092.389    1117.8855     1044.761    101.72237            0 
419000000     4.19e+08    293.65343       107143   -618.77037   0.81907956   -992.69995    2288.8938   -1337.9767   -368.91164   -149.42281   -324.59607    121.93722    621.90082    293.66848   -4296.3872    1062.6375    1109.0218    1026.6241    105.40384            0 
419100000    4.191e+08    290.62685       107143    671.49679   0.81907956   -952.93373    2294.8378    1225.5968    184.77099    604.12253    245.49739   -173.84388    183.33269     290.6434   -4303.8752    1026.6762    1137.3472    1072.8694    114.04869            0 
419200000    4.192e+08     297.8331       107143   -154.82653   0.81907956   -896.05956    2432.2423    315.51326   -570.66225    -209.3306    363.26439    309.89013   -325.90103    297.84921   -4263.0498    1064.4731     1130.139    1066.3277    106.05042            0 
419300000    4.193e+08    293.56703       107143   -89.046832   0.81907956   -852.24263    2428.3856    -106.4657   -584.28573    423.61093   -237.66843   -723.19154   -402.62119    293.58088   -4259.0245    1081.5136    1145.1451    1082.0776    98.045696            0 
419400000    4.194e+08    291.82533       107143   -742.99828   0.81907956   -902.88336    2358.2813   -857.41995   -1477.9995    106.42458   -409.06093   -82.330763   -627.74487    291.83983   -4284.0581     1071.726      1146.61    1058.2271    104.61159            0 
419500000    4.195e+08    296.14133       107143    731.80851   0.81907956   -951.49587    2357.9003    429.03399    1159.3473    607.04422     331.8393   -158.53049    197.91992     296.1573   -4308.5821    1046.5194    1117.8609    1080.8106    111.89532            0 
419600000    4.196e+08    296.94889       107143   -72.773039   0.81907956   -948.83816    2369.5826   -229.49364    -731.4205    742.59502   -193.46525    122.26214    301.08539    296.96365   -4287.2416    1067.9943    1107.3119    1055.6641    107.43307            0 
419700000    4.197e+08     295.0333       107143    55.164215   0.81907956   -836.39045    2460.6235    728.41767    329.45851   -892.38354    31.075055   -49.572726   -165.30842    295.04922   -4293.0782    1093.7926     1162.778    1093.7441    106.37313            0 
419800000    4.198e+08    291.61341       107143    89.460699   0.81907956    -943.5683    2315.2281    540.30306    -227.2373   -44.683661   -389.12395    23.420732    97.760317     291.6281   -4320.3894    1039.7368    1120.1761    1108.0398    108.86844            0 
419900000    4.199e+08    292.02508       107143     25.72853   0.81907956   -878.90355    2384.4933    380.98485    -305.3342    1.5349446    29.803274    313.83335   -477.85375     292.0411   -4273.5648    1036.4884    1155.5627     1094.998     107.6121            0 
420000000      4.2e+08    293.82447       107143    560.91593   0.81907956   -882.81842    2400.6868    833.43352    916.85785   -67.543597   -337.99191    201.93539   -80.814207    293.84092   -4268.3739    1094.9012    1118.5233     1055.961    116.16984            0 
420100000    4.201e+08    293.36635       107143    -108.8483   0.81907956   -931.81155    2346.5741    417.62311   -278.07772    -466.0903    47.321598    333.28079   -378.79659    293.38287    -4305.268    1034.3483    1142.3076    1097.0004    99.800148            0 
420200000    4.202e+08     288.1104       107143    775.02067   0.81907956   -882.61128    2337.0389    929.71911    404.65362    990.68927    317.35862   -36.419525    251.74067    288.12575   -4280.0033    1086.4688    1118.5985     1075.706    116.61872            0 
420300000    4.203e+08    298.62703       107143    404.24354   0.81907956   -882.23699     2454.937    1258.6084   -359.08535    313.20758   -428.64796   -212.62882   -417.42082    298.64203   -4270.2613    1067.2513    1148.6438    1060.4606    111.66863            0 
420400000    4.204e+08     290.8444       107143    860.09744   0.81907956   -865.57773     2384.625    1137.8209    966.54566    475.92578   -132.47188   -658.24901   -482.38584    290.85971   -4271.6171    1031.8434    1174.9426    1081.6332    117.62007            0 
420500000    4.205e+08    293.60997       107143    182.34391   0.81907956   -940.38234    2340.7258    15.667367     579.8175   -48.453145    69.665056   -359.22125   -690.84704    293.62441   -4269.5693    1061.9449    1082.3796    1077.2133    107.64917            0 
420600000    4.206e+08    293.76129       107143    491.29311   0.81907956   -963.26628    2319.5329    780.65463    483.25463    209.97008   -44.699079    1031.2585   -311.91707    293.77642   -4299.3922     1046.259    1133.4751    1046.2273    110.16452            0 
420700000    4.207e+08    296.64724       107143   -313.17104   0.81907956   -906.73607    2408.3137   -1044.4472    365.87259   -260.93854    -79.30158   -654.19107    59.103684    296.66493   -4258.6758     1068.047    1099.5365    1074.7261    109.63001            0 
420800000    4.208e+08    297.91608       107143   -278.60048   0.81907956   -855.26683    2473.9623     424.2384   -394.89063    -865.1492    -292.7738    219.75946    413.80708    297.93303   -4277.0058    1115.8993     1127.324    1066.3269    112.18882            0 
420900000    4.209e+08    296.88029       107143   -18.057969   0.81907956   -928.41014     2389.244   -434.88314   -248.10614    628.81537    239.71752   -621.95004   -294.26379    296.89575    -4264.702    1064.5981    1133.0263     1028.946    109.72152            0 
421000000     4.21e+08    295.67039       107143   -196.67525   0.81907956   -920.32745     2383.806    384.42901   -246.71698   -727.73777    162.81396    252.38879    203.83509    295.68584     -4294.35    1069.1579    1118.4587    1079.9382    106.46781            0 
421100000    4.211e+08    293.01048       107143   -309.34642   0.81907956    -954.3065    2320.1023   -649.08466     719.5683   -998.52288    380.39371    47.405241   -257.12937    293.02543   -4291.7174    1069.1469    1064.8075    1096.2997    107.15689            0 
421200000    4.212e+08    289.78384       107143    266.68034   0.81907956   -809.58396     2428.767   -122.33941    857.79387    64.586546   -412.90499   -873.13923    578.07281    289.79958   -4272.7181    1092.8595    1152.9955    1102.3728     114.9063            0 
421300000    4.213e+08    296.95702       107143   -417.82954   0.81907956    -947.4247    2371.0869   -718.89614   -381.90246   -152.69001   -159.19992     511.3076    83.391879    296.97336   -4290.0361    991.92375    1115.7704    1130.2649    104.65226            0 
421400000    4.214e+08    292.40015       107143    -69.04167   0.81907956   -896.03288    2371.5554    40.908985   -93.926343   -154.10765   -104.50011    116.59228    315.67746    292.41686   -4292.7101    1051.6582    1126.8523     1108.637    109.52973            0 
421500000    4.215e+08     289.8741       107143   -293.83532   0.81907956   -918.46013    2320.8994   -805.40372    736.23073   -812.33295    246.16844   -154.17664    114.17004    289.88907   -4276.6792    1024.1486    1146.6811    1076.2118    111.17757            0 
421600000    4.216e+08    288.03166       107143   -941.00308   0.81907956   -919.16821     2299.602   -1023.0704   -904.50676   -895.43207   -447.20758    65.145035   -248.92231     288.0482    -4271.714    1020.4393    1155.3366    1064.0552    112.71465            0 
421700000    4.217e+08    282.37133       107143    366.31397   0.81907956   -934.82474     2220.691    278.87675     432.2013    387.86385    476.83667    -61.77115   -416.35711    282.38581   -4277.3556     1038.492    1110.7821     1081.001    112.25574            0 
421800000    4.218e+08     289.5219       107143    665.95684   0.81907956   -897.12728    2338.2964    1219.0726    1133.7219   -354.92402   -286.72613   -155.59706    205.97692    289.53769   -4258.8993    1059.0883    1126.9818    1063.4082    112.29377            0 
421900000    4.219e+08    294.12537       107143   -85.245127   0.81907956   -920.78348    2366.0843    341.62936   -117.57123   -479.79351   -558.26792    21.878763    -320.0231     294.1398   -4281.1261     1037.574    1136.8973    1062.3132    123.55808            0 
422000000     4.22e+08    294.28187       107143    96.148856   0.81907956   -865.16337    2423.4533   -503.15448    726.14361    65.457435    161.20215    8.7844121   -600.06928    294.29915   -4280.7908    1052.7399    1155.5753    1098.4792    108.83291            0 
422100000    4.221e+08    289.60548       107143   -125.57733   0.81907956   -942.96621    2293.3915   -416.32067   -312.32073    351.90942    402.17367    208.10784    311.20907    289.62022   -4269.5428    996.45795    1138.0392    1089.1864    102.89302            0 
422200000    4.222e+08    301.09137       107143    369.02841   0.81907956   -916.08913     2448.624    1196.4046    660.55903   -749.87841   -821.56215   -986.20863    81.457968     301.1076   -4322.3576    1070.5541    1162.9617    1063.5257    109.22697            0 
422300000    4.223e+08      290.122       107143    87.190649   0.81907956    -916.1572    2325.9726   -326.38538   -6.3773942    594.33472    276.21722    310.44083     657.5458     290.1395   -4304.3213    1049.8131     1156.691    1070.4559    111.20411            0 
422400000    4.224e+08    290.27919       107143    -321.5405   0.81907956    -904.6855    2339.2009    -469.8187    520.32225   -1015.1251    826.72752   -125.73959   -176.32268    290.29568   -4281.3543    1061.1709    1135.4334    1079.1236    100.94089            0 
422500000    4.225e+08    298.98857       107143    16.442248   0.81907956   -948.32638    2392.8879     604.5785   -646.22123    90.969474     374.4584    202.76986   -275.14657    299.00437   -4288.7249    1042.1637    1153.4299    1037.5344    107.27062            0 
422600000    4.226e+08    299.89973       107143   -326.44322   0.81907956   -892.11042    2459.2861   -413.31136    323.95077   -889.96909     7.607486     260.1561   -525.18821    299.91621   -4266.5296    1044.1148    1136.8728    1081.0025    112.42913            0 
422700000    4.227e+08    287.13923       107143     -395.733   0.81907956   -916.14051    2292.6568    586.61837   -983.26505   -790.55231   -605.83071   -759.79943     365.1128    287.15608   -4282.5208    1034.8326     1196.107    1033.3663    102.07433            0 
422800000    4.228e+08    290.10148       107143   -329.99479   0.81907956   -896.35971    2345.5408   -841.75183   -47.165569   -101.06698    -42.35836    383.69008   -278.74888    290.11757    -4286.584    1068.9427    1155.7965     1063.911    101.57411            0 
422900000    4.229e+08    288.09254       107143   -40.008967   0.81907956   -909.61185    2309.8387   -514.91317    589.58427   -194.69801    403.93724    343.94976   -135.24521    288.10954   -4273.0667    1010.6927    1163.1064    1069.8091    119.84674            0 
423000000     4.23e+08    291.64201       107143    357.01619   0.81907956   -939.79217    2319.3239    340.99469    88.847632    641.20626    455.29509   -384.77805    269.11724    291.65702   -4312.9688    1076.2205    1146.7412     1036.638    113.57692            0 
423100000    4.231e+08    292.60737       107143    584.08498   0.81907956   -934.78737    2335.1166    409.03925      300.643    1042.5727    32.031733   -153.47279    370.63373    292.62574    -4299.239     1052.756     1157.566    1033.6477    120.48201            0 
423200000    4.232e+08    292.74725       107143    223.95878   0.81907956   -842.28496    2429.1822    728.59563   -386.55063    329.83135   -450.34937    -513.4635   -181.17737    292.76328   -4250.7205    1095.7873    1158.5257    1044.6438    109.47869            0 
423300000    4.233e+08      297.968       107143     8.009637   0.81907956   -892.68825     2437.121   -233.24656    242.38215    14.893317   -166.13439   -62.514603    181.51514    297.98406   -4299.4143     1097.287    1125.0221    1068.8688    115.54813            0 
423400000    4.234e+08    293.79646       107143    96.493871   0.81907956   -1036.2876    2246.9046    344.43355    82.397277   -137.34921    661.06451   -257.78884   -331.62464    293.81135   -4280.0809     1013.152    1114.2474    1008.7762    107.61776            0 
423500000    4.235e+08    290.78491       107143    117.84544   0.81907956   -880.27003    2369.2679   -412.06625    631.05886    134.54371    355.51187    149.05075    766.54106    290.80411   -4288.1837    1053.4545    1186.4828    1054.7851     113.1913            0 
423600000    4.236e+08    296.76814       107143   -120.76225   0.81907956   -910.03499    2406.3658   -288.92458   -302.63571    229.27352    86.018888   -220.96118   -226.37644    296.78463   -4277.7059    1065.2221    1130.6086    1067.7467     104.0935            0 
423700000    4.237e+08    289.00245       107143    396.53511   0.81907956   -957.04143    2272.5774    411.96013    76.361342    701.28386     725.9088     440.9735    121.74064    289.01875   -4293.8967    1059.2695    1106.3053    1061.4648    109.81563            0 
423800000    4.238e+08    294.85694       107143   -211.29617   0.81907956    -931.3768    2363.6662    143.30142   -598.66116   -178.52877    302.04028    269.84604    -188.4512    294.87447   -4290.8051    1076.1943    1106.8584    1060.2835    116.09207            0 
423900000    4.239e+08    292.40547       107143    54.492423   0.81907956   -899.72991    2367.9178   -90.689931    372.12763   -117.96043    293.30607   -161.17996   -71.797914    292.42197   -4268.4057    1032.2403    1160.8964    1065.9138    109.62534            0 
424000000     4.24e+08    295.77374       107143   -776.30694   0.81907956   -931.46214    2373.8262   -600.40308   -1092.2685   -636.24922    64.918383   -404.86609   -348.52273    295.79002   -4293.3302     1062.593    1116.9957    1071.5862    110.69322            0 
424100000    4.241e+08    284.55601       107143    464.42331   0.81907956   -919.27311    2260.6565    129.15633    1480.9397   -216.82609   -28.236862   -910.70262   -62.962766    284.57047    -4272.316    1108.4207      1099.69    1045.9229    99.009366            0 
424200000    4.242e+08     297.7483       107143   -987.75141   0.81907956   -966.92946    2360.4247   -426.14817   -501.35366   -2035.7524   -186.40849    568.88315    169.26922    297.76458   -4294.6591    1051.5003    1115.0265     1055.919    105.28381            0 
424300000    4.243e+08    294.12743       107143   -448.92108   0.81907956   -868.75985    2418.1309   -504.50365    234.70316   -1076.9628    633.91204   -398.86009    -253.6072    294.14347   -4276.7884    1104.4304    1129.3723    1057.0492    117.17667            0 
424400000    4.244e+08    291.54981       107143    938.06001   0.81907956   -819.99683    2438.0889    405.22625    1110.9533    1298.0005    21.094339    329.99906    424.79723    291.56721   -4268.0195    1078.3116    1151.0655    1095.6396    123.00595            0 
424500000    4.245e+08    289.59913       107143    711.00344   0.81907956   -968.11962    2268.1671    902.60313    1392.6875   -162.28034    701.44904   -14.194143    131.27393     289.6157   -4288.6695    1021.5961    1163.1571     1034.064    101.73274            0 
424600000    4.246e+08    285.07699       107143   -741.40862   0.81907956    -980.7009    2205.0507   -523.04621   -450.43209   -1250.7476    387.74969   -13.658836    -154.5902     285.0928   -4272.4711    1018.8027    1131.8865    1035.2807    105.80042            0 
424700000    4.247e+08    290.26983       107143   -282.09558   0.81907956   -980.28926    2263.4926    86.988966   -640.22388   -293.05184    -547.7597   -540.68912    560.07262     290.2858    -4303.885    1021.5496    1158.4582    1033.5907    109.99718            0 
424800000    4.248e+08    298.53022       107143    504.68236   0.81907956   -845.12742    2490.9648    1065.5014    558.57206    -110.0264   -209.39606    -302.3222    -556.7338    298.54586   -4259.9984    1079.5979    1126.7874    1091.0717    117.41405            0 
424900000    4.249e+08    289.77308       107143    294.19853   0.81907956   -787.08132    2451.1494    559.30128    -306.0964    629.39071   -248.41047    387.68767    171.45998     289.7891   -4245.6362     1077.031    1126.4898    1154.0182    101.01584            0 
425000000     4.25e+08    289.37485       107143   -253.04434   0.81907956   -886.54796    2347.2325    122.89864   -421.83407   -460.19757    289.37615    369.50782    116.12334     289.3924   -4287.2932    1060.5169    1119.7334    1110.5226    109.97235            0 
425100000    4.251e+08    299.83674       107143    115.74942   0.81907956   -947.45774    2403.2349    643.49387   -657.32466    361.07907   -210.66558    32.772182   -426.93871    299.85376   -4288.6448    1044.5193    1135.8729    1052.6248    108.17006            0 
425200000    4.252e+08    287.40904       107143    -182.0529   0.81907956   -950.66965    2261.1427   -791.25756    232.05127    13.047574   -426.40212    769.11965   -553.76574    287.42549   -4297.7549    1028.0613    1144.4458    1068.5527    106.02543            0 
425300000    4.253e+08    290.41341       107143    229.00015   0.81907956   -915.91782    2329.4686    752.67543   -634.63239    568.95741   -452.05228   -434.71457    157.89745    290.42777   -4304.8099    1032.1444    1187.9477    1054.9566    113.84326            0 
425400000    4.254e+08    293.50702       107143     1173.605   0.81907956   -849.38881    2430.5688    1443.7676    931.59844    1145.4489   -348.13141   -493.22542    85.201054    293.52237   -4285.5367    1080.2316     1161.371    1081.1368    113.40848            0 
425500000    4.255e+08    295.28211       107143    307.73705   0.81907956    -954.2212    2345.5732    792.24484    218.78829   -87.821978   -32.452284   -351.30013    319.31439    295.29641   -4301.7954    1033.6923    1142.2002    1069.3574    102.32424            0 
425600000    4.256e+08    295.18247       107143    208.47587   0.81907956   -841.13135    2457.5495    70.961592    566.09057   -11.624544    300.60965   -289.69016    -187.1362    295.19728   -4264.5226    1065.0597    1199.7297    1037.6844    120.91752            0 
425700000    4.257e+08    290.73629       107143   -139.50109   0.81907956    -919.3569    2329.6377   -618.39116    597.67397   -397.78607   -219.37594     172.2254   -489.51276     290.7519   -4276.3533    1046.7628    1142.9312    1054.9617    112.34071            0 
425800000    4.258e+08    296.83396       107143   -347.40477   0.81907956   -914.46209    2402.6742   -870.88402   -35.744671   -135.58561   -544.07204   -308.18639     110.1334    296.85257   -4269.1455    1042.4972    1150.3668    1058.0255    103.79377            0 
425900000    4.259e+08    290.52065       107143   -787.14529   0.81907956   -869.54544    2377.0393   -432.95686   -1745.6338   -182.84526   -646.23891   -215.88089    72.902254    290.53781   -4284.4808    1085.4286    1145.2903    1071.4092    112.80724            0 
426000000     4.26e+08    294.59893       107143   -394.35785   0.81907956   -891.09618    2401.0636    -274.3431    104.08551    -1012.816    121.43507    277.94614    414.95573    294.61561   -4274.1084    1053.8095    1149.6129    1069.1767    110.41315            0 
426100000    4.261e+08    286.00153       107143   -61.768874   0.81907956   -999.13037     2196.953    417.60143   -212.21881   -390.68925   -387.94706    797.78402     -940.757    286.01589   -4275.6639    1026.5185    1119.9205    1026.2491    103.84557            0 
426200000    4.262e+08    286.29785       107143     123.5136   0.81907956   -856.15219    2343.2426    448.70256    231.69694   -309.85872    180.39999   -197.22519   -509.42865    286.31413   -4294.5192    1096.5074    1135.7876    1084.5715     121.5005            0 
426300000    4.263e+08    297.70414       107143   -400.87236   0.81907956   -967.30272     2359.558   -398.35719    -389.6619     -414.598    -213.3291    215.15899    391.06681    297.71979   -4303.1441    1042.3231    1140.7711    1050.0473    102.69995            0 
426400000    4.264e+08    296.25599       107143    264.03358   0.81907956   -1002.6283    2308.0493    514.98169    357.36621   -80.247156   -435.68654    -179.0721    681.08457    296.27026   -4308.0833    1008.8665    1112.5543    1082.2122    101.82206            0 
426500000    4.265e+08    291.20588       107143   -148.05967   0.81907956   -929.58868    2324.6536   -1043.6341    694.76951   -95.314445    42.959761    2.6296834   -681.05823    291.22284   -4303.4374     1043.724    1165.1799    1057.4352    107.50958            0 
426600000    4.266e+08    293.09066       107143    418.40546   0.81907956   -943.13581     2332.169    851.46903    17.741991    386.00535    299.57508    241.92055   -333.47738    293.10626    -4282.501    1078.1766     1077.908    1078.2771    105.00338            0 
426700000    4.267e+08     300.4914       107143    414.98193   0.81907956   -923.67223    2434.3363    635.36596     303.2335    306.34634    387.30675     592.8056    690.12985    300.50679   -4293.5578    1055.4764    1156.1182    1047.8064    110.48456            0 
426800000    4.268e+08    289.42918       107143    146.28285   0.81907956   -934.90743    2299.4801    264.93785    41.959892     131.9508   -185.71865   -239.72959   -400.30733    289.44672    -4288.927    1020.2551    1131.7102    1095.8592    106.19501            0 
426900000    4.269e+08    286.35822       107143   -613.60469   0.81907956   -954.71702    2245.3524   -910.04361   -209.63033   -721.14013    196.17545   -396.35849   -355.08284    286.37469   -4297.1394    1060.5346    1111.7295    1057.8466    112.31176            0 
427000000     4.27e+08     289.6384       107143   -1318.1492   0.81907956   -886.93909    2349.7865   -2096.5383   -1222.7283   -635.18113   -41.884374   -317.25473   -263.79993    289.65361   -4258.8814    1097.3302    1110.4418    1058.8788    105.29142            0 
427100000    4.271e+08    298.46649       107143    621.78929   0.81907956   -902.27985    2433.1002    101.38552    1054.3125    709.66988   -541.84044   -148.26868   -149.14342    298.48289   -4315.5737    1076.4962    1134.1515    1098.6495    103.99665            0 
427200000    4.272e+08    301.12545       107143    171.49656   0.81907956   -877.48763    2487.6064   -200.44731    466.43314    248.50384    298.98274   -317.25987    37.804339    301.14282   -4278.1179    1044.7431     1168.805    1070.9956    116.08661            0 
427300000    4.273e+08    294.71379       107143    85.558014   0.81907956   -895.33175    2398.1116    17.565673   -394.19358    633.30195   -203.21445    183.48147   -482.50639    294.72965    -4294.908    1074.7109    1152.4861    1064.2332    108.14609            0 
427400000    4.274e+08     290.8914       107143    673.52687   0.81907956   -864.62256    2386.1054    816.24019    346.34244    857.99799    323.74678    661.90285   -296.29706    290.90845   -4271.8534    1086.8904    1149.5364    1059.4331    111.37107            0 
427500000    4.275e+08    291.04021       107143   -19.389956   0.81907956   -895.35481    2357.0361    381.34758   -625.09334    185.57589   -244.25582    -201.8055   -36.550724    291.05533    -4309.095      1042.33    1148.9602    1110.1592    112.29077            0 
427600000    4.276e+08    291.47964       107143   -489.42444   0.81907956   -904.90503    2352.3965   -396.37752   -106.01868   -965.87712   -223.22208    54.972255    464.39449    291.49709   -4291.5143    1056.7954    1136.9057    1077.5492     115.3588            0 
427700000    4.277e+08    297.37516       107143    69.377307   0.81907956   -882.84811    2440.3362    188.14724    615.09741   -595.11273   -411.93747    420.92467    60.599758    297.39347   -4274.1939    1061.2349    1153.5193    1065.6766      110.915            0 
427800000    4.278e+08    286.29376       107143     4.767046   0.81907956   -889.09281    2310.2563    583.48488    308.14146   -877.32519    369.79138     706.0318    566.54858    286.30827   -4290.6768    1093.4132    1106.4449    1101.3327    100.39319            0 
427900000    4.279e+08    294.40756       107143   -527.74703   0.81907956   -859.74195    2430.2793   -534.75382   -288.97228     -759.515    153.91109   -7.4411862    260.03933    294.42526   -4297.4951    1067.3251    1138.1962    1131.3793    100.85248            0 
428000000     4.28e+08    295.84444       107143    560.29967   0.81907956    -890.4745    2415.6039    260.55524    648.40269    771.94107   -44.792903    383.19353    91.690047    295.86124   -4304.8101     1040.228    1170.4848      1098.35    105.27276            0 
428100000    4.281e+08    286.96568       107143    49.380092   0.81907956    -908.9008     2297.957    516.72329    94.249298   -462.83231    161.11894   -262.14293   -79.103018    286.98217   -4268.8747    1033.5536    1157.5386    1060.1871     108.6946            0 
428200000    4.282e+08    292.07792       107143    348.58374   0.81907956   -767.02715    2496.9603    120.32744     582.3149    343.10888   -691.23976   -585.67246    436.21773    292.09424   -4245.1399    1075.4677    1177.9789     1118.572    106.09419            0 
428300000    4.283e+08    290.06279       107143    703.48014   0.81907956   -920.54316     2320.925    618.13414    437.16692    1055.1393   -349.94293   -450.20333    -241.6814    290.07898   -4290.7602    1062.8204    1101.2143    1093.5026    112.67971            0 
428400000    4.284e+08    298.73443       107143   -291.03937   0.81907956   -789.18241    2549.1918    121.67819   -136.85108   -857.94523   -168.75826   -630.24282    590.69264    298.75027   -4289.5296    1087.4492    1171.4872    1128.7873     112.6234            0 
428500000    4.285e+08    295.35921       107143   -302.46718   0.81907956   -936.22687    2364.4291   -517.24724     -412.143    21.988711   -226.45915    735.45976     101.0459    295.37322   -4276.6284    1030.1053    1149.7477     1054.136    106.41245            0 
428600000    4.286e+08     296.3305       107143    -487.4682   0.81907956   -1006.0084    2305.5019   -504.55093   -680.13754   -277.71613    126.60266   -431.11794   -111.24222    296.34594   -4306.7191    1023.8678    1068.9232    1096.6437    111.27595            0 
428700000    4.287e+08    289.32631       107143    209.34464   0.81907956   -964.15071    2269.0872    1021.8466   -296.42384   -97.388862   -69.665378    -306.7456    190.80892    289.34297   -4308.8542    1062.9266    1135.1412    1029.9726    116.66307            0 
428800000    4.288e+08     296.0076       107143   -369.90781   0.81907956     -941.687    2366.2148   -686.05645   -456.52235    32.855381   -145.56158      309.361   -226.09809    296.02513   -4278.8792    1027.0784    1171.7354    1029.5405    108.83791            0 
428900000    4.289e+08    293.13496       107143    214.42947   0.81907956   -906.44969    2369.3502    278.74792    257.26035    107.28016   -505.20645   -84.772037    425.70747    293.15189   -4290.8661    1049.1508    1201.0092    1025.7404     108.5161            0 
429000000     4.29e+08    291.44069       107143   -414.53017   0.81907956   -894.54397    2362.3223   -546.78733   -131.28422   -565.51896    653.43942    -248.0105   -290.23147    291.45538   -4293.1201    1046.8269    1161.3924    1088.5731    101.78367            0 
429100000    4.291e+08     295.0222       107143    -77.86901   0.81907956   -884.29613    2412.5938   -892.73519    772.66381   -113.53564   -129.03285    500.48529   -162.36721    295.03719   -4283.8481    1065.0684    1150.4697    1076.5486    107.46532            0 
429200000    4.292e+08    292.09998       107143    121.21038   0.81907956   -922.94432    2341.2896    73.389154     623.6533   -333.41133   -437.09138   -516.33866    463.51168    292.11568   -4289.1828    1045.1996    1140.8037    1065.4085    114.82674            0 
429300000    4.293e+08    287.25241       107143    609.86678   0.81907956   -837.38588    2372.6762    1133.3959    795.62076   -99.416294    411.39676    276.12596   -576.74945    287.26725   -4264.9985    1085.5445    1144.7883    1096.2625    101.01733            0 
429400000    4.294e+08    295.41596       107143   -308.43332   0.81907956   -980.52566    2320.7645   -120.68362   -1269.8915    465.27516     -172.531    97.330478   -477.61767    295.43279   -4302.5752    1044.3318    1111.7672    1055.8004    110.15027            0 
429500000    4.295e+08    291.42941       107143    43.631133   0.81907956   -884.95636    2371.7839    578.51569    173.20509   -620.82738   -76.084092    303.86295   -415.45054    291.44613   -4282.0593    1038.9688    1160.4443    1099.0593    98.630533            0 
429600000    4.296e+08    294.09182       107143   -55.421807   0.81907956   -1012.9318     2273.561    4.3193256   -211.57609    40.991337   -664.84384    33.191741   -280.23026    294.10747   -4309.0015    1057.8333    1124.6178    1009.1975    104.42107            0 
429700000    4.297e+08     295.6823       107143    1699.1135   0.81907956   -844.17505    2460.0915    1676.2582    1197.7308    2223.3515    46.738067    366.44765   -314.68855    295.69864    -4265.887    1061.5434    1122.2657    1131.4801    106.42285            0 
429800000    4.298e+08    301.83904       107143   -190.29438   0.81907956   -906.63737     2466.431   -491.90041   -358.00862     279.0259   -470.66157    78.182954    536.90959    301.85518   -4297.7556    1070.8269    1128.3244    1089.8769    102.09012            0 
429900000    4.299e+08    292.31399       107143   -579.46185   0.81907956    -911.3517    2355.2738   -450.70145   -1259.2903    -28.39383    552.16743   -391.51941   -11.074834     292.3304   -4289.4466    1066.8859    1153.7521    1052.4603    104.99655            0 
430000000      4.3e+08    292.43969       107143   -101.63249   0.81907956   -982.28209     2285.748   -219.51604   -549.06266    463.68122   -89.284195    65.747596   -344.22238    292.45572   -4283.8777    1024.8165    1137.6031    1025.6007    113.57525            0 
430100000    4.301e+08    296.32166       107143    17.072803   0.81907956   -952.92546    2358.4859   -434.08832    155.31928    329.98745    286.57046    362.12251   -586.04934     296.3371   -4286.0379    1047.4317     1102.543    1072.3908    110.74696            0 
430200000    4.302e+08    289.59336       107143    94.303058   0.81907956     -974.874    2261.3483   -8.3672264    231.08202    60.194383   -262.09547     119.9131    631.29925    289.60883   -4249.0206    1005.2215    1124.7413    1032.2793    111.90447            0 
430300000    4.303e+08    289.21156       107143   -113.64503   0.81907956   -901.99191    2329.9637    23.408706   -137.16163   -227.18217   -586.56261   -247.78142    82.893854    289.22754   -4263.8188    1014.6942    1129.2168    1122.7714    95.144476            0 
430400000    4.304e+08    297.74564       107143    712.89333   0.81907956   -922.62539    2404.6991   -114.14831    1265.2773    987.55104    431.75686    282.63578   -260.44515    297.76013   -4283.2521    1052.8229    1120.4378    1084.2562    103.10982            0 
430500000    4.305e+08     292.2139       107143   -118.33437   0.81907956   -927.20889     2338.298    137.33052    101.08784   -593.42147   -695.50785     152.2339    56.525811    292.22946   -4283.3605    1024.4802    1137.4494    1076.5613    117.66068            0 
430600000    4.306e+08    290.41579       107143   -120.55274   0.81907956   -895.23706    2350.1759   -572.39711   -176.63879    387.37769   -278.94049    38.118745   -316.55034    290.43276   -4284.7491    1061.0868    1191.9584    1024.8367    111.63023            0 
430700000    4.307e+08    290.38497       107143   -349.97759   0.81907956   -984.70762    2260.3609   -850.61906   -761.04728    561.73359   -1058.4974   -241.54665    314.39059    290.40003   -4298.3862    1046.0305    1158.0475    997.34208    112.25852            0 
430800000    4.308e+08    290.50387       107143    57.867628   0.81907956   -923.05339    2323.3438   -194.10432    328.71585    38.991355    33.438554    468.94928    -188.9157    290.51993   -4276.2757    1048.7922    1131.3278    1057.8299    115.27245            0 
430900000    4.309e+08    292.23086       107143    282.16593   0.81907956   -924.48045     2341.216   -84.787229   -256.47369    1187.7587     48.98136     -336.423    216.51609    292.24784   -4313.3611    1063.0475    1171.4609     1043.566    110.80619            0 
431000000     4.31e+08    294.83899       107143   -485.16826   0.81907956   -907.45868    2387.3838     -897.022   -963.51996    405.03718    183.80534   -78.489627     12.31385    294.85513   -4305.2195    1124.5005    1142.6774    1030.7835    99.799389            0 
431100000    4.311e+08    296.66341       107143   -164.26124   0.81907956   -812.61414    2502.6163    229.49198   -518.12175   -204.15395    57.312458    32.673548   -115.21346    296.67845   -4285.3067    1099.7111    1185.3605    1084.4454    103.17565            0 
431200000    4.312e+08    297.96864       107143    762.20521   0.81907956   -881.24589    2448.5706    1108.6156    889.23737    288.76264    -969.0736    485.77463    291.02843    297.98546   -4303.0797    1080.1435    1169.0817    1067.0017    105.60693            0 
431300000    4.313e+08    294.19837       107143    381.68441   0.81907956   -892.47696    2395.2066    -163.4785    486.99958    821.53214   -415.44718    188.19586     117.2262    294.21528   -4307.8266    1067.7654    1163.5474    1075.8779    108.15901            0 
431400000    4.314e+08    291.42143       107143   -479.36018   0.81907956    -826.7742    2429.8769   -437.73981   -364.56709   -635.77363    236.06424    446.34746    -892.8764     291.4366    -4308.223    1089.5084    1190.1336     1085.791    116.01595            0 
431500000    4.315e+08     289.4361       107143   -437.31942   0.81907956   -995.46425    2239.0007   -594.43794   -80.578086   -636.94225   -173.46475    -33.04683   -535.95791    289.45184    -4325.733    1052.9886    1114.0482    1052.6586    110.57333            0 
431600000    4.316e+08    292.79325       107143   -487.90348   0.81907956   -905.66427     2366.317   -801.03426    237.74163   -900.41781    342.98174    58.874883   -197.70609    292.80912   -4275.9588    1044.4017    1145.0409    1066.2209    114.63095            0 
431700000    4.317e+08    285.88739       107143   -193.82724   0.81907956   -823.30866    2371.4992    383.47461   -175.89668   -789.05965    196.23796   -192.90948    24.222719    285.90297   -4285.3109    1112.7462    1155.8135    1081.1002    112.34229            0 
431800000    4.318e+08     301.4138       107143   -226.66733   0.81907956   -947.76416    2420.5522    441.50481   -1434.9588      313.452    110.84023    18.058663   -31.284593    301.43054   -4299.0442    1079.8731    1098.8048    1072.0036    100.59859            0 
431900000    4.319e+08    294.41958       107143   -386.76623   0.81907956   -873.16936    2416.9861   -559.29948    15.304865   -616.30406    -57.14235   -61.147756   -800.88914    294.43477   -4262.8016    1061.1517    1122.9666    1097.2444    108.26952            0 
432000000     4.32e+08    299.85486       107143    72.702985   0.81907956   -904.03981    2446.8553    659.80188    197.44988    -639.1428    77.088901     298.1055    549.34218    299.87114   -4265.7977     1038.529    1188.2986    1023.7003    111.22998            0 
432100000    4.321e+08    298.57271       107143    77.990089   0.81907956   -960.66496     2375.902   -328.46628    48.088783    514.34776    584.31654    378.63185   -11.313626    298.58872   -4307.5218    1050.5404    1130.4814    1063.8958    101.93921            0 
432200000    4.322e+08    292.84607       107143     731.8394   0.81907956   -972.88443    2299.6871    425.22133    551.05255    1219.2443    459.62572   -278.87632    165.40175     292.8627   -4277.7361    1019.8924    1106.9509    1060.2576    117.75073            0 
432300000    4.323e+08    298.79508       107143    612.99215   0.81907956   -905.47924    2433.5727    477.89103    645.41394    715.67149    412.38723   -222.24866    621.12203    298.81216   -4282.1149    1060.2245    1151.3324    1056.3792    108.69947            0 
432400000    4.324e+08    298.81427       107143    194.15487   0.81907956   -879.71675    2459.5497    351.01765   -191.55708    423.00405    35.905966    34.825689    976.03382    298.83018   -4276.8594    1059.6555     1129.762    1094.5873    113.13783            0 
432500000    4.325e+08    291.34388       107143    274.90371   0.81907956   -971.66466    2284.1198   -95.697749   -89.536753    1009.9456   -566.11816   -34.163634    375.16353    291.36122   -4300.3587    1061.8366    1101.1762     1064.591    101.09024            0 
432600000    4.326e+08    287.68808       107143    302.33677   0.81907956   -982.80027    2232.1304    306.15511    180.87901    419.97619    30.101079   -226.53936   -254.09709    287.70481   -4284.0159    1013.5569     1123.004    1050.0175    114.63712            0 
432700000    4.327e+08    296.92109       107143   -91.984424   0.81907956   -880.53194    2437.5781   -555.69283    327.87784   -48.138287   -266.54685   -265.79201    569.42182    296.93946   -4291.4665    1110.4325    1132.5239    1063.5026    104.47546            0 
432800000    4.328e+08    296.79228       107143   -167.31807   0.81907956   -945.50425    2371.1664   -830.13258    677.91421   -349.73585    372.37011   -275.35911    721.55218    296.80872     -4299.85    1030.9753    1136.4018    1081.6665    105.30216            0 
432900000    4.329e+08    293.66627       107143    320.08332   0.81907956   -948.13726       2333.6    477.72185    1221.3965   -738.86842   -316.02955    8.0583837     48.71289    293.68314   -4304.8357    1087.7419    1139.3465    1020.9995    108.61051            0 
433000000     4.33e+08    293.73932       107143    159.72561   0.81907956   -865.73549    2416.8181    588.71726   -136.64757    27.107147   -92.599429     61.44742   -145.32633    293.75529   -4258.1006    1071.6536    1163.7756    1049.4509      107.485            0 
433100000    4.331e+08    298.28668       107143     230.4766   0.81907956   -889.09044    2444.2802   -167.67621    758.38626    100.71975     802.0323   -20.024097   -132.89917    298.30262   -4254.3515    1034.3289    1133.6057    1090.9457    106.38082            0 
433200000    4.332e+08    297.93381       107143   -262.95617   0.81907956   -857.47504    2471.9522   -1092.6469    598.04533   -294.26691   -588.36212    194.12245    244.74824    297.95045   -4271.1066    1069.2495    1163.3646    1080.0126    101.00494            0 
433300000    4.333e+08    296.80361       107143    191.27609   0.81907956   -916.66972    2400.1275    175.54075    719.99803   -321.71051   -352.31668   -486.49281    1022.3219    296.81999   -4305.0882    1048.6727    1132.5918    1091.5938    115.56029            0 
433400000    4.334e+08     289.4503       107143   -521.66672   0.81907956   -882.77491    2351.8487   -863.31017   -499.18255   -202.50744   -369.08768   -81.537388    -87.55084    289.46584   -4286.9067    1040.2349    1189.0763    1073.6997    101.12087            0 
433500000    4.335e+08     295.9856       107143    66.858958   0.81907956   -1010.1996    2297.4564   -265.01923   -36.275875    501.87198     36.32463    154.24761    658.59474    296.00186   -4284.8496    1052.7315    1087.8501    1033.5145    100.55389            0 
433600000    4.336e+08    296.82774       107143   -269.48779   0.81907956   -893.62744    2423.4394   -44.185342   -736.37272   -27.905311    43.125119    -42.56565   -351.68644    296.84409   -4277.6139    1050.5277    1169.3163     1061.254    102.88839            0 
433700000    4.337e+08    289.33114       107143   -87.221078   0.81907956    -908.4798    2324.8122   -892.70924   -331.29379     962.3398   -921.92893   -285.83356    216.14149    289.34605   -4280.9374    1067.8963    1114.5351    1074.6376    115.38854            0 
433800000    4.338e+08    299.07971       107143   -314.54764   0.81907956   -934.96127    2407.2715    239.98714     -612.431   -571.19907   -842.01988   -315.62501    -261.6047    299.09479   -4280.5478    1089.5766    1130.2945    1015.0698    110.64569            0 
433900000    4.339e+08     285.1178       107143   -59.004085   0.81907956   -903.04467    2283.1629    541.00734    -542.2994    -175.7202    -656.3386    292.46466    436.30667     285.1328   -4304.6789    1081.5781    1150.1157    1061.3456    108.59481            0 
434000000     4.34e+08    298.72851       107143   -274.71137   0.81907956   -947.86806    2390.4401    277.47583    -739.5882   -362.02175    -83.38484    855.62186    794.24053    298.74296   -4268.4266    1021.6053    1154.3384    1027.1276    117.48732            0 
434100000    4.341e+08    297.68225       107143    329.47518   0.81907956   -940.84578    2385.7703    721.60327   -630.14138    896.96364   -343.91495   -60.013294   -38.780363    297.69937   -4275.9479    1081.0144    1094.9289    1057.3646    101.79421            0 
434200000    4.342e+08    288.37912       107143   -485.84747   0.81907956   -932.57095    2290.0821   -74.126179   -703.85226   -679.56396     554.4576    851.17039     -446.205    288.39343   -4306.2971    1037.8113    1144.8685    1079.5757    111.47068            0 
434300000    4.343e+08    293.53287       107143    191.28405   0.81907956   -893.69158    2386.5549    723.18902   -466.51551    317.17864   -193.97629   -204.48053    243.10726    293.54953   -4282.6075    1086.8195    1179.1328    1015.9824    106.98117            0 
434400000    4.344e+08    288.56104       107143    366.57491   0.81907956   -900.56019    2324.1258    595.83173    322.53723    181.35576   -546.40972    276.21584     457.3166    288.57726   -4320.1986    1055.8414    1116.9592    1136.2638    110.57399            0 
434500000    4.345e+08    289.06934       107143    653.12243   0.81907956   -946.49777    2283.8686     461.6576    262.25512    1235.4546   -120.87828   -78.781178   -458.28554    289.08671   -4301.3022    1051.8764    1115.9062    1077.4947     109.5272            0 
434600000    4.346e+08    292.79953       107143    320.77265   0.81907956    -931.8953    2340.1561    612.04794    533.17536   -182.90535   -382.89329    74.442701     326.0601    292.81735   -4281.4052    1046.9507    1149.5995    1025.2038    127.75572            0 
434700000    4.347e+08    290.01609       107143    12.866571   0.81907956   -881.89575    2359.0505    -496.9765    103.99335    431.58286    79.028841   -218.11607   -109.24955     290.0347   -4288.9884    1093.6282    1147.7391    1059.4152     106.3102            0 
434800000    4.348e+08    296.75812       107143   -885.67675   0.81907956    -888.6657    2427.6232   -549.69333   -1372.2017   -735.13528     248.6161   -67.193373   -534.27983    296.77413   -4312.6442    1094.5395    1154.2199    1063.0374     112.1817            0 
434900000    4.349e+08    291.50761       107143   -192.36829   0.81907956    -844.2366    2413.3775    418.45344   -415.44448   -580.11385   -299.49038   -86.329764    414.80384    291.52493   -4268.7481    1058.9498    1190.2309    1068.3811     106.9497            0 
435000000     4.35e+08    297.93344       107143    501.30345   0.81907956   -880.49967    2448.9234   -148.46311    825.58387    826.78958    184.10213    16.573376   -179.85702    297.94848   -4276.5762    1079.2987     1129.222    1077.0319     110.5241            0 
435100000    4.351e+08     299.9011       107143      533.201   0.81907956    -852.5633    2498.8485     549.3336    429.21536    621.05405    359.92061    194.92095   -37.648718    299.91867   -4275.8488    1082.5506     1151.565    1080.0891    109.08079            0 
435200000    4.352e+08    288.26367       107143    448.35736   0.81907956   -866.15669    2355.2062    117.84615    276.18384    951.04211   -304.48265    541.24923   -314.34099    288.28077   -4260.1698     1065.211    1146.1185    1070.2159    112.46771            0 
435300000    4.353e+08    291.15434       107143   -488.83466   0.81907956   -896.05108    2357.6153   -207.10028   -701.39866   -558.00504    348.01869   -614.42797     233.0289    291.17152   -4282.1483    1074.8106     1161.239    1037.9632    112.08446            0 
435400000    4.354e+08    288.85385       107143   -106.43012   0.81907956   -959.06835    2268.8898   -129.90476   -326.68434    137.29874   -6.3584775   -164.03534    146.92833    288.87031   -4270.6303    1000.4358    1132.8753    1071.3707    106.88003            0 
435500000    4.355e+08    296.83275       107143   -105.58657   0.81907956   -877.93292    2439.1899   -780.64738    304.83467    159.05301   -581.14804    476.08286   -611.96662    296.84971   -4272.8085    1069.4962    1147.8973    1066.2685    111.21355            0 
435600000    4.356e+08    290.66185       107143     50.27178   0.81907956   -967.17944    2280.9833    704.64609   -348.63088   -205.19987    107.46172   -204.48979    607.28981    290.67842   -4273.1258      1044.91    1110.1961    1049.8508    100.98941            0 
435700000    4.357e+08    297.62862       107143   -345.80893   0.81907956   -956.67935    2369.3374   -600.27512    -460.8278    23.676119    53.731186   -59.082561   -621.13134     297.6451   -4309.7423    1036.7018    1141.8592    1068.4196    106.08227            0 
435800000    4.358e+08    295.34777       107143   -350.90237   0.81907956   -997.57986    2302.9483    299.75312   -1230.8921   -121.56816    324.15579   -71.026248    264.30028    295.36474   -4305.4283     1041.465    1117.6236     1044.532    104.22777            0 
435900000    4.359e+08    295.11578       107143    281.93303   0.81907956   -928.68117    2369.2545    669.12572    420.25939   -243.58603    92.219203    445.63259    109.04213    295.13256   -4283.4478    1064.8657    1139.5931    1033.0392    117.26874            0 
436000000     4.36e+08    294.34413       107143    611.56919   0.81907956   -1034.1248    2255.1876    1215.7386    595.70718    23.261763   -96.200306   -72.392893   -164.87985    294.36061   -4302.8442    1016.2498    1112.4287    1031.5346    108.50638            0 
436100000    4.361e+08    292.45422       107143    360.17354   0.81907956   -942.86362    2325.3289    1334.6436   -785.83618    531.71314    245.21593    143.69195   -213.85439    292.47198    -4290.411    1050.5821    1127.6719    1058.6984    110.59505            0 
436200000    4.362e+08    292.24602       107143   -665.66773   0.81907956   -911.67529    2354.1906   -396.83113   -925.63385   -674.53822   -667.23516     190.4744    34.499056    292.26286    -4285.679    1053.3599    1153.2739    1054.7233    112.64665            0 
436300000    4.363e+08    300.08392       107143   -84.256105   0.81907956   -918.74692     2434.708      168.545    31.260096   -452.57341   -96.474933    527.97271    283.61927    300.10014   -4288.0683    1084.9346    1141.7612    1028.0047    114.62085            0 
436400000    4.364e+08    301.04374       107143      517.423   0.81907956   -879.21992     2484.961    163.20755     1500.974   -111.91252   -129.91598    141.39848    329.04417    301.06061   -4275.0961    1067.7812    1146.5923    1071.4666    110.03605            0 
436500000    4.365e+08    302.49925       107143    266.41212   0.81907956   -900.03574    2480.4106    406.31388    263.29044    129.63203   -674.74945   -835.96998    374.89774    302.51575   -4280.8343     1096.935    1118.8242    1064.2209    100.81846            0 
436600000    4.366e+08    298.16315       107143    750.90554   0.81907956   -909.04758    2422.9426    1355.0278     490.6011    407.08774   -425.32104   -761.04857   -146.77652    298.17849   -4279.1205    1027.5956    1146.3232    1081.3727    114.78135            0 
436700000    4.367e+08    292.88897       107143    116.27033   0.81907956   -967.29006    2305.7608   -369.50491    234.45209    483.86381    34.430337   -163.62189   -181.39817    292.90455   -4285.5015    1047.9091    1122.8713    1035.5247    111.90626            0 
436800000    4.368e+08    296.69878       107143    382.49778   0.81907956   -906.48748    2409.1383    372.15794   -62.671109    838.00652    17.320907    877.50199    86.920952    296.71773   -4288.2815    1090.3565     1121.691    1063.4848    106.26164            0 
436900000    4.369e+08    295.15624       107143   -910.24192   0.81907956   -909.11804    2389.2697   -841.71832   -1044.3692   -844.63824     -482.696   -628.81406    230.09812    295.17147   -4279.8823    1081.8639    1127.6131    1049.9587    111.32852            0 
437000000     4.37e+08    288.16215       107143   -614.86581   0.81907956   -966.95862    2253.2698   -882.54379   -309.21631   -652.83735   -372.19519   -432.01656   -451.16321    288.17855   -4287.5591    1010.6911    1158.4415    1030.0243    121.44358            0 
437100000    4.371e+08    290.33921       107143     480.9595   0.81907956   -941.78613    2302.7711    258.77943    1421.0646   -236.96557   -340.13035    660.74296   -317.73733    290.35533    -4263.781    1056.3099    1121.1558    1034.9415    109.58768            0 
437200000    4.372e+08    295.54609       107143   -854.26124   0.81907956   -931.49032    2371.2541    -955.4814   -1222.6342   -384.66813    450.14887   -52.495955    205.83966    295.56223   -4303.7657    1035.5352    1159.7461    1063.5215    113.47254            0 
437300000    4.373e+08    293.34674       107143   -106.14883   0.81907956   -929.45189    2348.7146    251.51766   -578.81507    8.8509111   -304.38222    198.38502    538.16627    293.36445   -4287.5083    1098.9787    1092.7381    1056.0654    110.27427            0 
437400000    4.374e+08    296.87544       107143   -400.61114   0.81907956   -900.13614    2417.4638    129.20779   -652.14688   -678.89432   -19.011635   -13.553263    43.094811    296.89195    -4284.442    1047.7786    1138.6283    1098.7101      99.1889            0 
437500000    4.375e+08    291.34129       107143   -323.33288   0.81907956   -906.52567    2349.2298    203.01827    -513.6612    -659.3557    311.99989    245.68419    26.869379    291.35703   -4246.9932    1003.1901    1111.6016    1111.0551     114.6208            0 
437600000    4.376e+08    299.90838       107143    446.75191   0.81907956    -968.8854    2382.6078    431.23878    335.99621    573.02075     239.9308   -979.91189   -494.77812    299.92549   -4278.0029    1035.0794    1130.5394     1045.258    98.240657            0 
437700000    4.377e+08    297.62288       107143    22.774602   0.81907956   -943.83681    2382.1158    836.87281   -47.159584   -721.38942    145.07564    590.92148    44.614723    297.64004   -4290.4166    1041.1732    1149.0468    1042.7445    113.61543            0 
437800000    4.378e+08    294.36488       107143    201.59313   0.81907956   -850.29884    2439.2454     723.8304    955.83185   -1074.8829   -143.89373    75.302385   -140.75286    294.37751   -4257.0413    1056.1181    1163.5493    1076.6108    110.46429            0 
437900000    4.379e+08    291.46456       107143   -38.996569   0.81907956   -1003.5799    2253.5531    327.41094    34.085414   -478.48606    663.35224   -79.488759   -53.056761    291.48078   -4311.3566     1032.094    1115.2963    1049.4133    110.97316            0 
438000000     4.38e+08    294.44374       107143   -27.047453   0.81907956   -947.73519    2342.6903   -395.99038    767.43932   -452.59129   -391.22048    49.397477    -325.9669    294.46146   -4273.4522    1039.9202    1111.1621     1076.164    98.470665            0 
438100000    4.381e+08    294.39604       107143    277.30871   0.81907956   -1009.6977    2280.1947    26.228864    1171.9233   -366.22606    -625.6034   -237.23922   -311.02307    294.41179   -4312.1666     1015.817    1119.0934    1056.3819    111.17657            0 
438200000    4.382e+08    292.26418       107143   -313.71792   0.81907956   -972.38594    2293.6829   -1024.3471     230.4457   -147.25236   -500.72748     449.9416   -224.98227    292.28154   -4306.6219    1037.8677    1120.7895    1067.2857    108.29293            0 
438300000    4.383e+08    292.63911       107143    185.41882   0.81907956   -796.03644    2474.2223    274.62357    174.49833    107.13456   -665.68614   -60.473878    464.99911    292.65645   -4254.0051    1093.0709    1171.4511    1078.2273    115.21931            0 
438400000    4.384e+08    291.68311       107143   -15.968447   0.81907956   -955.83626    2303.7391    514.85151   -355.62362   -207.13323    179.88068    1047.2629     327.2202    291.69768    -4306.515    1033.0886    1152.0916    1042.1168    123.38176            0 
438500000    4.385e+08    292.71472       107143    227.37596   0.81907956   -881.27353    2389.8302   -62.316494    649.57888    94.865487   -165.46797   -146.25522    433.20927    292.73313   -4272.4428    1040.3594    1181.2508    1066.0829    103.47609            0 
438600000    4.386e+08    291.69071       107143   -348.69722   0.81907956   -835.29091    2424.3694   -175.10044   -298.67433   -572.31687    179.27494    112.04767    49.132176    291.70699   -4284.1076    1095.4797    1163.5257    1083.7093    106.10196            0 
438700000    4.387e+08    299.08866       107143   -457.58174   0.81907956   -964.54742    2377.7854    -1135.284    288.52173   -525.98297    83.675441   -674.84544    169.24334    299.10553   -4305.8153     1089.223     1094.648    1043.7335    113.66343            0 
438800000    4.388e+08    293.55127       107143   -351.96846   0.81907956   -847.63932    2432.8128   -1140.0736   -543.49864    627.66687   -473.93573   -93.740171   -536.93477    293.56757   -4298.5508    1031.8335    1167.2968    1130.7963    120.98485            0 
438900000    4.389e+08    297.81591       107143   -489.92099   0.81907956    -824.3695    2503.7402   -516.83296   -479.21022    -473.7198   -945.49129   -330.05104    344.31618    297.83204   -4273.5321    1042.9905    1179.2527    1119.8158    107.10367            0 
439000000     4.39e+08    290.09456       107143    511.39724   0.81907956   -967.11205    2274.7111    446.34128    1392.0083   -304.15785   -114.36881    273.50827   -170.36533    290.11109   -4298.6921    1018.6878    1148.7324    1063.3018    100.85799            0 
[...]
1404200000   1.4042e+09    299.17206       107143    230.52856   0.81907956    -948.1773    2395.0875   -281.41854     326.0821    646.92213    44.733002    470.15058   -326.06438    299.20149   -4285.6214    1079.8743    1070.0184     1074.062    113.48938            0 
1404300000   1.4043e+09    294.07038       107143   -346.40272   0.81907956   -973.05219     2313.201    61.355978   -970.96467   -129.59946   -186.67754   -856.93299    173.17724    294.09968   -4295.3142    1026.4251    1137.3731    1043.7096     114.7542            0 
1404400000   1.4044e+09    294.75156       107143   -655.65601   0.81907956   -920.70305    2373.1624   -37.106486   -1389.9227   -539.93884    447.51791    396.14706   -977.98087    294.77905   -4330.3041    1054.8476    1167.6192    1082.5458     104.5885            0 
1404500000   1.4045e+09    292.61352       107143   -295.69648   0.81907956   -1093.5366    2176.4361    -556.3357   -115.56654   -215.18719   -459.64556   -387.57682   -259.86273    292.64284   -4298.9385    991.78031     1060.804    1044.9205    107.89715            0 
1404600000   1.4046e+09     290.2828       107143    -1005.732   0.81907956   -953.63322    2290.2935   -186.18925   -1567.3776   -1263.6291    113.33963   -101.73209    514.62134    290.30958   -4294.8312    1059.4391    1124.0826    1052.6104    105.06589            0 
1404700000   1.4047e+09    291.70604       107143    527.38857   0.81907956   -945.46895    2314.3626    389.01319    1526.6296   -333.47706    3.5341014   -243.39846    231.84857    291.73691   -4274.1539    1015.5542    1128.8537    1068.3394    115.93766            0 
1404800000   1.4048e+09    296.75392       107143    209.27814   0.81907956   -1046.5222    2269.7197   -448.74398    1011.1111    65.467295     133.2425    235.27001    405.19646    296.78116   -4294.9436    1012.6294     1089.151    1041.4446     105.1963            0 
1404900000   1.4049e+09     287.8665       107143    168.44782   0.81907956   -1027.6958    2189.2287   -379.61293    372.85624    512.10016   -115.11273   -71.541075    26.592039    287.89334   -4331.5415    1050.8843    1122.3249    1023.7715    106.86507            0 
1405000000    1.405e+09    298.26018       107143   -235.78143   0.81907956   -958.32275    2374.7517   -62.350033   -275.25256   -369.74169   -428.94193   -745.19983     4.390677    298.28804   -4287.1374     1029.379    1151.4911    1041.2662    106.67824            0 
1405100000   1.4051e+09    294.46561       107143    421.41393   0.81907956   -926.17382    2364.4961    936.91856    906.71803    -579.3948   -312.14883    255.31903   -445.31725    294.49412    -4285.459    1046.4562    1138.6806    1069.7121    104.43626            0 
1405200000   1.4052e+09    301.86186       107143    452.83901   0.81907956   -1023.2944     2350.029      368.427    461.59846    528.49157   -432.24917   -350.33941    313.88069    301.88972   -4293.8597    1034.4081    1099.6979    1019.4229    117.03629            0 
1405300000   1.4053e+09    287.53821       107143   -853.16151   0.81907956   -1063.5279    2149.7279   -802.75321   -764.28809   -992.44322    378.60144   -219.71568     54.55362    287.56435   -4310.7974    1062.7066    1091.7886    987.67252    105.10179            0 
1405400000   1.4054e+09    296.00827       107143    47.824345   0.81907956   -945.09932      2362.81    132.54101    339.61908   -328.68705    301.82115   -89.921685   -193.18322    296.03829   -4263.2382    1055.7604    1104.2129    1039.9922    118.17347            0 
1405500000   1.4055e+09    289.10569       107143    287.72307   0.81907956    -993.9893    2236.7832    1056.4699   -99.352747   -93.947938   -1070.1791   -74.856808   -610.11894    289.13214   -4289.0726    1048.6919    1084.3568    1050.7336    111.30101            0 
1405600000   1.4056e+09    294.74014       107143   -223.35042   0.81907956   -976.53906    2317.1988    265.85026   -943.30713    7.4056013   -296.82089    208.71289    46.964058      294.767   -4298.7559    1062.6075    1116.7591    1032.9915    109.85869            0 
1405700000   1.4057e+09    287.64084       107143   -470.89929   0.81907956    -981.3158    2233.0869   -1119.4662   -1192.0108    898.77919   -746.64783    43.273696   -220.45811     287.6685    -4298.099     1038.405    1126.9822    1051.8016    99.594477            0 
1405800000   1.4058e+09    287.44983       107143   -813.87929   0.81907956     -965.878    2246.3902    -889.8918    -1006.799   -544.94706   -72.597182    334.58376    96.176023    287.47634   -4319.8324    1024.9974    1158.0006    1068.1949    102.76144            0 
1405900000   1.4059e+09    291.63071       107143    267.42984   0.81907956   -1011.5333    2247.4565    788.91915    816.85784   -803.48747    298.15777    6.8870438   -821.83895     291.6565   -4313.3574    1060.9726    1092.2314    1044.4529    104.16716            0 
1406000000    1.406e+09    298.78903       107143    98.244706   0.81907956   -1003.3598    2335.6246    315.47225   -192.78676    172.04863    233.50723    390.31215   -19.132436    298.81685   -4288.5848     985.2792    1120.1707    1065.7288     114.0463            0 
1406100000   1.4061e+09    293.86309       107143    538.80065   0.81907956   -957.46369    2326.4731    823.70423    451.21632    341.48141    1017.3924    243.77101    626.36391    293.89038   -4298.1087    1027.2474    1169.3965    1030.3611     113.6399            0 
1406200000   1.4062e+09    296.22195       107143   -201.93035   0.81907956   -1018.2821     2292.015    75.614603   -121.63818   -559.76746   -50.448715   -516.45658   -63.843558    296.24955    -4320.836    1015.0093    1115.8802    1057.0262    114.63832            0 
1406300000   1.4063e+09    286.19478       107143    179.58693   0.81907956   -969.40106    2228.8418    795.96146   -278.62933    21.428674    376.68706    29.579725   -7.4720274    286.22078   -4300.5275    1040.9471    1127.2544    1052.5018     110.4231            0 
1406400000   1.4064e+09    297.59812       107143   -74.965258   0.81907956   -1024.2197    2301.4562   -725.79184    545.26668   -44.370618   -112.71645   -950.78439   -763.27853    297.62628    -4279.152    991.31624    1151.1647    998.25119    114.20014            0 
1406500000   1.4065e+09    292.40317       107143   -118.60481   0.81907956   -980.39062    2287.2315   -121.76516   -666.20583    432.15657    199.28237   -299.46626   -1004.8008    292.43139   -4297.3641    1072.1669    1154.8309    982.51546    107.46021            0 
1406600000   1.4066e+09    295.32535       107143   -80.630356   0.81907956   -979.28239    2320.9952   -90.845911   -382.56555    231.52039    482.80941    263.60992    -340.9583    295.35375   -4311.2131    1061.6147    1139.1577    1018.7882    112.37004            0 
1406700000   1.4067e+09    295.52863       107143    254.58759   0.81907956   -1000.4381    2302.1112   -437.67946    553.72474    647.71749    593.20178    15.011131   -491.19347    295.55596   -4327.3046    1049.5994    1113.0999    1048.4465    115.72068            0 
1406800000   1.4068e+09    292.72398       107143    313.12584   0.81907956    -1032.011    2239.1961    145.41223    505.50396    288.46132   -16.066447   -728.56907   -438.54257    292.75055   -4288.7019    1041.4666    1139.0435    964.62426     111.5565            0 
1406900000   1.4069e+09    301.39364       107143    304.29597   0.81907956   -1030.8249    2337.2662    286.56208    502.98067    123.34515    175.30773    128.11715    84.831768    301.42303   -4301.6083    1029.4806    1106.4333    1029.8839     104.9855            0 
1407000000    1.407e+09    294.86069       107143    214.21625   0.81907956   -1037.7312    2257.3538    710.11514   -73.974104    6.5077136   -531.22492    159.84162    273.34657    294.88531   -4303.3811    1016.8508    1085.2849    1059.7724    103.74179            0 
1407100000   1.4071e+09     286.1121       107143    372.96052   0.81907956   -952.50232    2244.8166    216.99931    874.44526    27.436982    489.52201   -576.04842    47.917978    286.13926   -4328.5971    1076.0574    1164.1185    1021.9387    113.98022            0 
1407200000   1.4072e+09    292.39511       107143    201.95854   0.81907956   -948.41447    2319.1175    517.82167    768.54168   -680.48774    741.62265   -180.49345    172.18326    292.42113   -4317.3734    1063.2871    1142.6407     1054.407    108.62426            0 
1407300000   1.4073e+09    296.56973       107143   -52.770432   0.81907956   -1021.3914    2292.7922   -591.76588   -46.734741    480.18932    34.119094    307.40159   -13.047185    296.59767   -4294.9755    1033.3586     1112.296    1019.7175    108.21197            0 
1407400000   1.4074e+09     291.6661       107143   -439.89477   0.81907956     -1024.23    2235.1553   -1130.2643    45.154289   -234.57431    244.01922    487.39503    81.873792    291.69172   -4303.8591    1061.6138    1066.2683    1044.9216    106.82537            0 
1407500000   1.4075e+09    292.43213       107143   -194.30095   0.81907956   -1015.0847     2252.861     777.8916   -587.72553   -773.06893   -749.18454    -508.4612    153.22187    292.45987    -4294.988    1042.0846    1106.2245    1030.1644    101.42984            0 
1407600000   1.4076e+09    292.31649       107143    756.80711   0.81907956   -955.82906    2310.8244    244.13752    592.28014    1434.0037   -377.15969    156.36986   -523.20587    292.34226    -4306.809    1052.5537    1150.8735    1037.8659    109.68678            0 
1407700000   1.4077e+09    293.66671       107143   -397.15182   0.81907956   -974.07466    2307.6675     -473.701    95.784537   -813.53901   -454.79008   -1144.0192    554.87168    293.69365   -4279.9242    1084.4971    1106.8874    1000.9135    113.55154            0 
1407800000   1.4078e+09    291.35302       107143    631.43942   0.81907956    -1004.397    2251.4896    314.07895    419.06432     1161.175   -404.76499   -400.34947    556.68743    291.37949    -4283.363    1054.0363    1132.2741     995.8259    96.829713            0 
1407900000   1.4079e+09    297.10778       107143    287.13108   0.81907956   -902.84725    2417.3491    121.05214    518.32307    222.01803   -10.742695    -97.74007     171.2605    297.13489    -4275.129    1036.3323    1151.5516    1068.4201    115.97788            0 
1408000000    1.408e+09    292.92717       107143   -284.27694   0.81907956   -969.82805    2303.6497   -361.46268   -148.95332   -342.41483    650.80016   -248.59174    484.32039      292.955   -4298.9577     1047.277    1133.8799    1046.2812    101.69157            0 
1408100000   1.4081e+09    294.73065       107143   -327.83895   0.81907956   -930.73306    2362.8988   -347.61572    435.32839   -1071.2295   -422.45009    297.27925    477.94595    294.75764   -4285.4505    1056.1247     1118.009    1066.8182    113.76568            0 
1408200000   1.4082e+09    291.10192       107143   -300.17616   0.81907956   -881.34965    2371.7309    99.510146   -617.99809   -382.04053    617.89405    80.046354   -154.80208    291.13075   -4307.2469    1060.8397    1141.5646    1122.6348    100.85815            0 
1408300000   1.4083e+09    286.75468       107143     193.8278   0.81907956   -1026.7571    2177.7428    -543.4814    356.31824    768.64657   -159.54782   -58.579346   -381.94707    286.78182   -4299.1311    1008.6149    1129.8432    1028.0927    105.82318            0 
1408400000   1.4084e+09    293.63762       107143   -413.16224   0.81907956   -977.53994    2303.8771   -724.53056   -490.04547   -24.910689   -508.91869   -202.34608   -488.84704    293.66536   -4310.6642    1027.8311    1089.2073    1105.6551     110.4308            0 
1408500000   1.4085e+09    290.55149       107143    142.17981   0.81907956   -916.18184    2330.7476    617.99224   -314.63382    123.18101   -478.28333   -121.73028    618.30125    290.58015   -4266.1763    1053.6193    1147.0438    1043.4134    105.91797            0 
1408600000   1.4086e+09    294.42489       107143    523.68011   0.81907956   -935.40883     2354.806    853.94414    324.20933    392.88687   -523.41752    277.34655   -802.63659    294.45425   -4315.2646    1059.1121    1120.4174    1096.6412    103.68507            0 
1408700000   1.4087e+09    295.06031       107143    351.20792   0.81907956    -938.4294    2358.8864    93.129216     547.8885    412.60605   -342.48362   -361.91478   -235.70165    295.08908   -4293.0729    1033.8343    1143.2717    1077.2434    100.29412            0 
1408800000   1.4088e+09    287.11456       107143     -1340.91   0.81907956   -946.83864    2261.6829   -1890.4074   -810.22578   -1322.0968   -59.302726   -319.27087    291.19641    287.14361   -4314.9536    1090.4211    1151.1846    1019.5212    106.98811            0 
1408900000   1.4089e+09    299.08239       107143   -601.42181   0.81907956   -926.19352    2416.0692   -324.17372   -995.47123   -484.62047    502.76987    336.49788   -334.13106    299.11017   -4326.8749    1098.7906    1115.1322    1072.8628    113.89577            0 
1409000000    1.409e+09    296.36981       107143   -985.98807   0.81907956   -950.16679    2361.7827   -1805.7227   -221.14101   -931.10054   -383.07244    437.10854    136.56833    296.39821   -4307.5886    1056.7454    1126.2384    1060.0442    114.39379            0 
1409100000   1.4091e+09    291.51839       107143    208.84826   0.81907956   -976.64074    2281.0939    256.08601   -91.859694    462.31846   -257.67028   -673.21038    448.74353    291.54717   -4270.3366    1033.0683    1096.3377    1057.7929    106.49702            0 
1409200000   1.4092e+09    297.44545       107143   -383.25688   0.81907956   -1016.8845    2307.0853    1353.5461   -1974.8415   -528.47527   -163.10954    210.03553     171.0246    297.47205   -4274.7521    1049.0193    1089.5209    1012.6924    106.63499            0 
1409300000   1.4093e+09    290.93491       107143   -300.52341   0.81907956   -1036.7757    2214.4384    517.78036   -1196.8177    -222.5329    441.17105   -588.37768   -42.625225    290.96104   -4297.7427    1077.0456    1053.7217    1033.1883    97.011407            0 
1409400000   1.4094e+09    291.41482       107143   -101.49903   0.81907956   -1062.8109    2193.7662   -380.04278   -173.33608    248.88176   -568.05655    235.50183   -641.77434    291.43956   -4289.1175    1003.4184    1116.0645    1004.2499     102.5738            0 
1409500000   1.4095e+09    286.45504       107143   -170.34601   0.81907956   -1015.8016    2185.3498   -465.60736    225.39544    -270.8261   -554.03655    34.724162   -264.51786    286.48142   -4305.1539    1075.5606    1098.4404    1013.2804    102.07086            0 
1409600000   1.4096e+09    290.74608       107143    343.05263   0.81907956   -872.57392      2376.53    320.12596    563.29893    145.73299   -29.613793   -822.58754    158.76671    290.77294   -4286.9301    1050.2065    1164.2469    1087.4211    112.48169            0 
1409700000   1.4097e+09    295.74499       107143    301.19296   0.81907956   -966.04854    2338.9185    363.95145    655.90065   -116.27323   -735.32577   -205.60329    -669.0923    295.77348   -4273.7888    1016.4044    1105.1317    1078.6788    107.52544            0 
1409800000   1.4098e+09    293.33468       107143     311.5281   0.81907956   -897.96709    2380.0647    237.86316    713.84283   -17.121672    329.66244   -558.41754   -223.85499    293.36297   -4261.6783    1057.2809    1117.1821    1075.5002    113.74797            0 
1409900000   1.4099e+09    290.86315       107143    159.58092   0.81907956    -1038.236    2212.1763    211.65467    87.713974    179.37411   -122.85025     45.43112   -263.01519    290.88974   -4294.0905    998.12983    1126.0976    1022.6043    109.02272            0 
1410000000     1.41e+09    296.92581       107143    -339.7858   0.81907956   -987.79814    2330.3646    -635.3226   -358.90311   -25.131685   -476.84465    -287.6858    382.35366     296.9532    -4290.007    1064.7255    1114.67Generated thermo.dat
Done!
stress
average  23.8399
square average  660.95
number of blocks  500
variance  .43036999893115226300
pxx
average  1.59772
square average  377.523
number of blocks  500
variance  .86599109787757056365
pyy
average  -12.6028
square average  782.798
number of blocks  500
variance  1.11711005022781887064
pzz
average  -15.833
square average  825.823
number of blocks  500
variance  1.07251024330772710806
xx
average  2205.74
square average  4.86592*10^06
number of blocks  500
variance  1.12343437725574340731
yy
average  2171.41
square average  4.71517*10^06
number of blocks  500
variance  .54518235481350641379
zz
average  2171.45
square average  4.71535*10^06
number of blocks  500
variance  .55659231040322502824
xx
average  -1410.01
square average  1.98854*10^06
number of blocks  500
variance  .90752399417315683444
yy
average  -1402.24
square average  1.9667*10^06
number of blocks  500
variance  .91976344784950005100
zz
average  -1405.5
square average  1.97579*10^06
number of blocks  500
variance  .84823345842993012650
rm: cannot remove `running.average.out': No such file or directory
stress
average  21.3955
square average  2462.1
number of blocks  9000
variance  .47191484398376601840
average  23.4347
square average  2514.28
number of blocks  19000
variance  .32159919775282891381
average  23.5128
square average  2506.95
number of blocks  29000
variance  .25958177478132144408
average  23.4628
square average  2472.43
number of blocks  39000
variance  .22199139600790491341
average  23.3675
square average  2436.94
number of blocks  40900
variance  .21501691204025134396
average  23.3943
square average  2407.38
number of blocks  41900
variance  .21069759842848759810
average  23.4043
square average  2379.52
number of blocks  42900
variance  .20663576399775781052
average  23.4684
square average  2355.27
number of blocks  43900
variance  .20274338288553941693
average  23.5679
square average  2333.97
number of blocks  44900
variance  .19902457512916642721
average  23.6053
square average  2309.87
number of blocks  45900
variance  .19540805927000259041
average  23.6581
square average  2289.31
number of blocks  46900
variance  .19203790406271806045
average  23.6658
square average  2266.24
number of blocks  47900
variance  .18873106150671920366
average  23.741
square average  2247.59
number of blocks  48900
variance  .18557129602937101298
average  23.8306
square average  2230.38
number of blocks  49900
variance  .18252748461006126597
average  23.8399
square average  2228.68
number of blocks  50000
variance  .18222728489389287940
average  23.8399
square average  2228.68
number of blocks  50000
variance  .18222728489389287940
average  23.8399
square average  2228.68
number of blocks  50000
variance  .18222728489389287940
average  23.8399
square average  2228.68
number of blocks  50000
variance  .18222728489389287940
average  23.8399
square average  2228.68
number of blocks  50000
variance  .18222728489389287940
average  23.8399
square average  2228.68
number of blocks  50000
variance  .18222728489389287940
pressure, stress.strain, ktensor, virial are all concatenated
averages computed will all accumulated data until now
72    1011.6674     111.1387            0 
Loop time of 57317.9 on 48 procs for 200000000 steps with 3750 atoms

Pair  time (%) = 19006.1 (33.1592)
Bond  time (%) = 4153.9 (7.24711)
Neigh time (%) = 10416.3 (18.1728)
Comm  time (%) = 17065.7 (29.7738)
Outpt time (%) = 1.26177 (0.00220136)
Other time (%) = 6674.66 (11.645)

Nlocal:    78.125 ave 89 max 65 min
Histogram: 1 2 6 8 3 5 7 10 3 3
Nghost:    1265.83 ave 1300 max 1233 min
Histogram: 5 1 5 6 6 7 9 3 4 2
Neighs:    5971.44 ave 6774 max 4830 min
Histogram: 1 3 6 6 2 4 5 7 9 5

Total # of neighbors = 286629
Ave neighs/atom = 76.4344
Ave special neighs/atom = 6.26667
Neighbor list builds = 22308226
Dangerous builds = 0
System init for write_restart ...

real	4786m4.889s
user	0m0.054s
sys	0m0.238s
