LAMMPS (7 Aug 2019)
OMP_NUM_THREADS environment is not set. Defaulting to 1 thread. (src/comm.cpp:93)
  using 1 OpenMP thread(s) per MPI task
# THIS IS A LAMMPS FILE TO SHEAR SQUALANE
# Major update times:
# 2020.02.11: updated to LAMMPS 2019

#--------------------------------RESTART------------------------------------#
variable       	eqmT equal 293
variable       	temperature equal temp
variable       	massdensity equal density
variable       	pressure    equal press
variable       	volume      equal vol

variable       	dumpstep    equal 200000
variable       	dumpstep2   equal ${dumpstep}/10
variable       	dumpstep2   equal 200000/10
variable       	dumpstep3   equal 10 #${dumpstep}/dumpstep2
variable       	dumpstep4   equal ${dumpstep}*10
variable       	dumpstep4   equal 200000*10

#Nevery=dumpstep3, Nrepeat=dumpstep2, and Nfreq=dumpstep;   Nevery*Nrepeat <= Nfreq
#example Nevery=2, Nrepeat=6, Nfreq=100
# Nfreq=100: Means every 100th step there willbe average
# Nrepeat=6:  Means 90, 92, 94, 96, 98, 100
# Nevery=2: Means gap between 90,92 and so on

atom_style	molecular

read_restart   	restart_files/sql.T293K.P0.1MPa.*
WARNING: Restart file used different # of processors (src/read_restart.cpp:738)
  restoring atom style molecular from restart
  triclinic box = (111.251 111.251 111.251) to (158.749 158.749 158.749) with tilt (0 0 0)
  6 by 4 by 8 MPI processor grid
  restoring pair style lj/cut from restart
  restoring bond style harmonic from restart
  restoring angle style harmonic from restart
  restoring dihedral style multi/harmonic from restart
  restoring improper style harmonic from restart
  3750 atoms
  3625 bonds
  4250 angles
  3875 dihedrals
  750 impropers
  3 = max # of 1-2 neighbors
  3 = max # of 1-3 neighbors
  6 = max # of 1-4 neighbors
  8 = max # of special neighbors
  special bonds CPU = 0.0141191 secs
  read_restart CPU = 0.0934472 secs

neighbor       	0.3 bin
neigh_modify   	every 1 delay 0 check yes

variable	dummystep equal step
timestep       	1
reset_timestep	0
variable	dummytime equal step*dt

variable 	exptsrate equal 5e7		# 1e10 , 1e9, 1e8, 1e7
variable        srate equal ${exptsrate}/1e15		#0.00001 = 1e10, 0.000001 = 1e9, 0.0000001 = 1e8, 0.00000001 = 1e7, 0.000000001 = 1e6
variable        srate equal 50000000/1e15		
variable        runstep equal (30/${srate})/5 		#
variable        runstep equal (30/5e-08)/5 		

compute         myT all temp
compute		tilt all temp/deform
compute		ptilt all pressure tilt
fix             shear1 all nvt/sllod temp ${eqmT} ${eqmT} 100.0 tchain 1
fix             shear1 all nvt/sllod temp 293 ${eqmT} 100.0 tchain 1
fix             shear1 all nvt/sllod temp 293 293 100.0 tchain 1
fix             shear2 all deform 1 xy erate ${srate} remap v units box
fix             shear2 all deform 1 xy erate 5e-08 remap v units box

compute		myP all pressure NULL virial
variable        strain equal ${srate}*dt*step
variable        strain equal 5e-08*dt*step
variable        stress equal (-1)*c_ptilt[4]
variable        h1 equal c_ptilt[1]
variable        h2 equal c_ptilt[2]
variable        h3 equal c_ptilt[3]
fix             ssave all ave/time ${dumpstep3} ${dumpstep2} ${dumpstep} v_strain v_stress ave one file outfiles/strain.stress.out	#10, 20, ..., 100, ..., 910, 920, ... 1000
fix             ssave all ave/time 10 ${dumpstep2} ${dumpstep} v_strain v_stress ave one file outfiles/strain.stress.out	
fix             ssave all ave/time 10 20000 ${dumpstep} v_strain v_stress ave one file outfiles/strain.stress.out	
fix             ssave all ave/time 10 20000 200000 v_strain v_stress ave one file outfiles/strain.stress.out	
fix             pressave all ave/time ${dumpstep3} ${dumpstep2} ${dumpstep} v_strain v_h1 v_h2 v_h3 ave one file outfiles/pressure.out
fix             pressave all ave/time 10 ${dumpstep2} ${dumpstep} v_strain v_h1 v_h2 v_h3 ave one file outfiles/pressure.out
fix             pressave all ave/time 10 20000 ${dumpstep} v_strain v_h1 v_h2 v_h3 ave one file outfiles/pressure.out
fix             pressave all ave/time 10 20000 200000 v_strain v_h1 v_h2 v_h3 ave one file outfiles/pressure.out
fix             virialave all ave/time ${dumpstep3} ${dumpstep2} ${dumpstep} v_strain c_myP[1] c_myP[2] c_myP[3] c_myP[4] c_myP[5] c_myP[6] ave one file outfiles/virial.out
fix             virialave all ave/time 10 ${dumpstep2} ${dumpstep} v_strain c_myP[1] c_myP[2] c_myP[3] c_myP[4] c_myP[5] c_myP[6] ave one file outfiles/virial.out
fix             virialave all ave/time 10 20000 ${dumpstep} v_strain c_myP[1] c_myP[2] c_myP[3] c_myP[4] c_myP[5] c_myP[6] ave one file outfiles/virial.out
fix             virialave all ave/time 10 20000 200000 v_strain c_myP[1] c_myP[2] c_myP[3] c_myP[4] c_myP[5] c_myP[6] ave one file outfiles/virial.out
fix             ktensorave all ave/time ${dumpstep3} ${dumpstep2} ${dumpstep} v_strain c_tilt[1] c_tilt[2] c_tilt[3] c_tilt[4] c_tilt[5] c_tilt[6] ave one file outfiles/ktensor.out
fix             ktensorave all ave/time 10 ${dumpstep2} ${dumpstep} v_strain c_tilt[1] c_tilt[2] c_tilt[3] c_tilt[4] c_tilt[5] c_tilt[6] ave one file outfiles/ktensor.out
fix             ktensorave all ave/time 10 20000 ${dumpstep} v_strain c_tilt[1] c_tilt[2] c_tilt[3] c_tilt[4] c_tilt[5] c_tilt[6] ave one file outfiles/ktensor.out
fix             ktensorave all ave/time 10 20000 200000 v_strain c_tilt[1] c_tilt[2] c_tilt[3] c_tilt[4] c_tilt[5] c_tilt[6] ave one file outfiles/ktensor.out
thermo         	${dumpstep}
thermo         	200000
thermo_style    custom step v_dummytime temp vol press density pe etotal pxx pyy pzz pxy pyz pxz c_myT
thermo_modify	temp tilt
thermo_modify	press ptilt
dump            intra all custom ${dumpstep} data/data.rg.all.* id mol type mass xu yu zu vx vy vz
dump            intra all custom 200000 data/data.rg.all.* id mol type mass xu yu zu vx vy vz
dump            movie all atom ${dumpstep4} outfiles/nvt.shear.sql.atom
dump            movie all atom 2000000 outfiles/nvt.shear.sql.atom

run             ${runstep}
run             120000000
Neighbor list info ...
  update every 1 steps, delay 0 steps, check yes
  max neighbors/atom: 2000, page size: 100000
  master list distance cutoff = 10.3
  ghost atom cutoff = 10.3
  binsize = 5.15, bins = 10 10 10
  1 neighbor lists, perpetual/occasional/extra = 1 0 0
  (1) pair lj/cut, perpetual
      attributes: half, newton on
      pair build: half/bin/newton/tri
      stencil: half/bin/3d/newton/tri
      bin: standard
Per MPI rank memory allocation (min/avg/max) = 10.2 | 10.32 | 10.92 Mbytes
Step v_dummytime Temp Volume Press Density PotEng TotEng Pxx Pyy Pzz Pxy Pyz Pxz c_myT 
       0            0     288.1695    107159.33   -98.050084   0.81895482   -967.19917    2253.1114   -45.996906   -251.69456    3.5412147   -589.76029    646.70022   -176.31568    288.16925 
  200000       200000    295.74694    107159.33    849.19105   0.81895482   -917.46929    2387.5196     1425.484    862.93035    259.15886    415.21154    312.53744   -163.59318    295.74524 
  400000       400000    292.47485    107159.33   -165.34754   0.81895482   -980.66108     2287.762    431.86762    362.55699   -1290.4672    196.92389    1068.0244    52.469936     292.4736 
  600000       600000    295.93688    107159.33     482.2899   0.81895482   -886.16046     2420.951    238.64561    253.61036    954.61374   -30.702781   -83.103226    219.08274    295.93558 
  800000       800000    298.15105    107159.33    542.42769   0.81895482   -947.49966    2384.3553    816.51097     40.60606    770.16605   -64.078444    43.295962   -6.8915173    298.15024 
 1000000      1000000    295.73277    107159.33   -298.76075   0.81895482   -882.39542    2422.4352    156.80624    -964.9505    -88.13799   -753.40513    456.42089    291.85216    295.73256 
 1200000      1200000    297.91407    107159.33    59.218672   0.81895482   -863.24773     2465.959    391.07804    54.709327   -268.13135   -422.67503    458.30215      244.156    297.91361 
 1400000      1400000    294.34066    107159.33   -340.61351   0.81895482   -914.12259     2375.151   -496.77058   -298.84164   -226.22831    528.33864    13.508029   -77.980212     294.3399 
 1600000      1600000    294.81119    107159.33   -496.26632   0.81895482   -760.02472    2534.5071   -444.91371   -1044.3322   0.44697433   -146.19075   -46.733304   -133.87793    294.80985 
 1800000      1800000    296.28449    107159.33    -84.55009   0.81895482   -873.29298    2437.7031   -896.68466    74.919232    568.11516    343.45557   -582.93507   -25.637088    296.28416 
 2000000      2000000    296.18252    107159.33    86.941299   0.81895482   -946.58946    2363.2671    667.86346     40.39205   -447.43161    3.0971699   -346.16011   -411.89711    296.18048 
 2200000      2200000    295.43821    107159.33   -972.80872   0.81895482     -872.033    2429.5058   -1069.6672   -55.471568   -1793.2874    246.28019    -649.9615    1079.2844    295.43705 
 2400000      2400000    295.67768    107159.33    303.16153   0.81895482   -878.30503    2425.9098    -39.60387    802.24401    146.84444    206.86274   -468.90694   -328.02033    295.67749 
 2600000      2600000    291.82746    107159.33    934.53377   0.81895482   -857.97137    2403.2171    1545.9387    404.21223    853.45037    237.10031    318.45919    7.6170926    291.82733 
 2800000      2800000    296.06652    107159.33    -504.8661   0.81895482   -969.93454    2338.6256   -726.94402   -1099.5475    311.89319    576.29928   -721.69253    250.55775     296.0666 
 3000000      3000000    295.63288    107159.33    644.72156   0.81895482    -862.0343    2441.6799    267.08926    1518.8918    148.18365   -311.69244   -191.76941    443.57927    295.63276 
 3200000      3200000     294.5568    107159.33   -24.056083   0.81895482     -864.612     2427.077   -206.64151    418.82008   -284.34682    112.56526    214.73323   -673.07328    294.55584 
 3400000      3400000    288.97981    107159.33   -41.651288   0.81895482   -897.10412    2332.2617     575.6835   -45.404603   -655.23276    889.62669    427.02314    506.12039     288.9794 
 3600000      3600000    294.16455    107159.33    323.91794   0.81895482   -903.36748    2383.9381    589.71806    348.51684    33.518905    105.62782    -157.3434   -424.13556    294.16361 
 3800000      3800000    293.92233    107159.33    814.64132   0.81895482   -810.30691    2474.2919    1357.6503    728.43507    357.83864    425.24095    123.16929   -119.20231    293.92109 
 4000000      4000000    287.77596    107159.33    39.945276   0.81895482   -902.89692    2313.0158   -514.07715    603.33217     30.58081    628.79154   -55.898437    593.00399    287.77448 
 4200000      4200000     293.4367    107159.33    161.63658   0.81895482   -894.85621    2384.3156    1283.6252   -343.86773   -454.84773   -552.77348    290.92567    217.59655    293.43482 
 4400000      4400000    300.92639    107159.33   -163.64568   0.81895482   -833.51698    2529.3526   -976.68569   -308.65322    794.40186   -112.30567   -327.80525    -234.9026    300.92572 
 4600000      4600000    291.15158    107159.33   -352.54325   0.81895482   -915.63368    2338.0018     25.73889   -1160.8129    77.444239   -114.07869    429.36432    15.071496    291.15135 
 4800000      4800000    295.70844    107159.33   -340.49941   0.81895482   -948.25517    2356.3034   -660.03279    65.767708   -427.23315   -47.097282   -598.73035    319.91244    295.70777 
 5000000      5000000    295.94874    107159.33   -85.620054   0.81895482   -926.67897     2380.565   -469.95934    650.88994   -437.79075    202.70333    297.22463   -332.98008    295.94765 
 5200000      5200000    293.75516    107159.33    567.47893   0.81895482   -930.30867    2352.4219    678.58228    191.72375    832.13075    -514.2699     19.79429   -23.904826    293.75463 
 5400000      5400000    289.39373    107159.33    332.64879   0.81895482   -904.85201    2329.1393    112.08826    1681.2919   -795.43383     176.4806    471.13079    99.712544    289.39256 
 5600000      5600000    296.03125    107159.33   -244.24377   0.81895482   -878.68198    2429.4841   -1428.6423    435.86668    260.04429    643.42551   -368.73173   -169.95263    296.03071 
 5800000      5800000    284.61589    107159.33    308.34422   0.81895482   -866.37152    2314.2273     693.1867    571.50356   -339.65759    521.52194   -275.23464    144.78514    284.61502 
 6000000      6000000    282.90208    107159.33   -445.04481   0.81895482   -963.93179     2197.515    -371.8442   -65.783066   -897.50715   -601.89146   -681.84327    519.42542    282.90132 
 6200000      6200000    296.26705    107159.33   -597.66247   0.81895482   -858.92842    2451.8728   -462.70858   -231.34908   -1098.9297   -392.09793    200.27887   -415.74816    296.26502 
 6400000      6400000    299.70204    107159.33    476.19898   0.81895482   -1019.2249    2329.9625    583.87597    148.77944    695.94153    1160.9332   -79.401048   -108.70491    299.70185 
 6600000      6600000    293.84819    107159.33   -195.71233   0.81895482   -929.63289    2354.1374   -672.28425   -183.21014    268.35741   -384.80569    137.04263   -306.65991    293.84794 
 6800000      6800000    287.67064    107159.33   -77.408221   0.81895482   -985.57168    2229.1641   -303.68221    102.41981   -30.962266    66.578035    558.48283   -667.15282    287.66951 
 7000000      7000000      290.496    107159.33    643.58976   0.81895482   -949.88983    2296.4195    776.23594    358.07391    796.45943    36.008155    248.50411    230.22239    290.49538 
 7200000      7200000    292.81215    107159.33    -1013.582   0.81895482   -834.43613    2437.7563   -325.88957   -1601.2268   -1113.6296   -312.73181    401.50424     284.6313    292.81168 
 7400000      7400000    299.45508    107159.33    94.330678   0.81895482    -909.8699    2436.5576    723.42352    70.758511   -511.18999   -166.01084    443.84408   -325.50904    299.45433 
 7600000      7600000    291.44316    107159.33   -428.51333   0.81895482   -828.14011    2428.7538   -166.45235   -572.09824    -546.9894   -516.10723   -221.72125    315.93847    291.44201 
 7800000      7800000    290.41218    107159.33   -174.18344   0.81895482   -934.20936    2311.1633   -24.111609   -762.76403    264.32533   -497.62039   -156.45197    326.81503     290.4112 
 8000000      8000000    291.55041    107159.33     433.9105   0.81895482   -935.16972    2322.9227    358.96781    511.75719    431.00651    404.05636    70.049046    338.32469     291.5497 
 8200000      8200000    291.71937    107159.33    46.274049   0.81895482   -917.63914    2342.3415    157.19186    281.44243   -299.81214    203.60862   -402.97261   -240.14298    291.71759 
 8400000      8400000    295.05747    107159.33    19.162827   0.81895482   -919.38679    2377.8972    266.10551   -84.073986   -124.54304    55.942961    447.81503    226.64195    295.05535 
 8600000      8600000    296.84495    107159.33   -8.5844179   0.81895482   -912.32948    2404.9297   -70.105583   -63.639925    107.99225    143.45859    55.125715    554.44607    296.84306 
 8800000      8800000    291.13493    107159.33    115.37927   0.81895482   -902.76851    2350.6809   -54.495096    160.94494    239.68796    -560.6327    645.90139   -31.774422    291.13386 
 9000000      9000000    293.91277    107159.33     593.5572   0.81895482   -992.70983    2291.7821    370.20345    536.57117      873.897   -779.66145    276.68173    246.06637    293.91119 
 9200000      9200000    290.76967    107159.33    120.00995   0.81895482   -903.09153     2346.276    488.31507    150.42621   -278.71144   -48.133009    377.10528    266.34254    290.76821 
 9400000      9400000    288.80609    107159.33     643.1866   0.81895482    -889.0542    2338.3703    1275.5916    749.53786    -95.56963    282.20122   -297.54456   -150.43141    288.80524 
 9600000      9600000    293.50771    107159.33    822.54346   0.81895482   -965.21534    2314.7501    1278.2797    444.76838    744.58232    215.56317     652.1957   -116.80043    293.50626 
 9800000      9800000    283.98068    107159.33    -258.5304   0.81895482   -838.54175    2334.9585     295.6869   -177.04352   -894.23457   -258.34494   -238.48773   -66.740901    283.97944 
10000000     10000000    294.46357    107159.33    362.77604   0.81895482   -903.67824    2386.9689   -9.4207982    622.05356    475.69534   -11.363381    335.93452   -165.98518    294.46238 
10200000     10200000    293.48629    107159.33   -12.905822   0.81895482   -864.99836    2414.7276  -0.68936514    34.917222   -72.945322   -762.15758    707.37606    102.64614    293.48405 
10400000     10400000    288.71192    107159.33   -645.23519   0.81895482   -919.74593    2306.6262   -1092.8914   -832.60586    -10.20831   -501.99768    50.450435   -395.05922    288.71001 
10600000     10600000    288.69774    107159.33    221.76959   0.81895482   -866.69404    2359.5196     1048.423   -50.735232   -332.37905    1064.7566    698.50381   -103.52272    288.69591 
10800000     10800000    292.93361    107159.33    28.608146   0.81895482   -939.87049    2333.6792    353.53434   -516.70494    248.99503     223.0741   -101.61201    129.94169    292.93209 
11000000     11000000    290.82748    107159.33   -360.13628   0.81895482   -836.56427    2413.4493   -371.10174   -287.82721   -421.47991   -844.41589    1032.5579   -26.476982    290.82544 
11200000     11200000    296.32661    107159.33       301.76   0.81895482   -870.04739    2441.4194   -11.254311    829.79663    86.737669   -34.604773   -345.33424   -129.09546    296.32541 
11400000     11400000    293.39267    107159.33   -365.57186   0.81895482   -834.25288    2444.4269   -215.93136     161.0253   -1041.8095    351.25475   -302.24182   -285.32459    293.39082 
11600000     11600000    295.77775    107159.33   -176.25176   0.81895482   -901.37441    2403.9587   -615.36383    649.53688   -562.92833    270.34418   -91.980607   -50.876715    295.77691 
11800000     11800000    294.60482    107159.33    179.75889   0.81895482   -915.32134    2376.9043     386.1728    63.994314    89.109555   -32.930173    45.289518    30.796743    294.60276 
12000000     12000000    291.08081    107159.33   -953.68213   0.81895482   -967.69422    2285.1504   -1771.3031   -278.33729   -811.40599    -847.9747   -874.79286   -230.01718    291.07981 
12200000     12200000    290.21387    107159.33    93.764417   0.81895482   -914.01558    2329.1409   -42.535114    412.87983   -89.051467   -82.580384   -54.139138   -80.547983    290.21208 
12400000     12400000     291.0357    107159.33   -238.43323   0.81895482   -943.48287    2308.8577    -414.4778   -247.42886   -53.393039   -153.61787    -389.0752   -106.80644    291.03356 
12600000     12600000    292.38906    107159.33   -233.99269   0.81895482   -929.43686    2338.0275   -1115.2036    991.17015   -577.94458   -588.66731   -298.04427    441.63602    292.38747 
12800000     12800000    298.29733    107159.33   -49.127525   0.81895482   -990.20655     2343.283   -687.66248    11.317599    528.96231   -391.97051    338.27044    69.390738    298.29533 
13000000     13000000    300.23654    107159.33    600.46433   0.81895482   -945.43793    2409.7225    409.66034    802.66157    589.07107   -280.37104    169.24597   -467.52625    300.23461 
13200000     13200000    287.82988    107159.33   -270.86583   0.81895482   -914.99214    2301.5232   -71.389185   -656.42998   -84.778328   -430.53632    509.05422    235.10019    287.82872 
13400000     13400000     294.6952    107159.33   -194.10476   0.81895482   -950.15989    2343.0757    543.09999   -268.06983   -857.34444   -98.913474   -321.33624   -104.53258    294.69313 
13600000     13600000    286.55271    107159.33   -77.935422   0.81895482   -928.61572    2273.6272   -147.16102    52.462519   -139.10777    667.68029    117.05611   -331.97671     286.5508 
13800000     13800000    293.82319    107159.33   -190.55167   0.81895482   -915.95354    2367.5373     368.4265   -1092.0652    151.98365   -71.952832   -99.913519   -21.575011    293.82045 
14000000     14000000    293.13897    107159.33   -345.86921   0.81895482   -914.50771    2361.3369   -915.92108    288.44623   -410.13279   -435.42097    552.29795   -441.80756    293.13702 
14200000     14200000    289.48231    107159.33    270.66755   0.81895482   -922.51797    2312.4633    301.99086    187.50135    322.51044   -457.07737    299.09546    -355.1325    289.48035 
14400000     14400000    294.72478    107159.33    596.91528   0.81895482   -885.71781    2407.8483    791.09314    1034.0343   -34.381607    619.04664    33.729905    80.621239    294.72342 
14600000     14600000    297.53021    107159.33   -84.790657   0.81895482   -772.80153    2552.1155   -90.597816   -659.92842    496.15426   -299.70338   -9.7454285    194.08821    297.52772 
14800000     14800000    291.49237    107159.33   -163.47689   0.81895482   -831.66204    2425.7818   -326.18435   -571.56261     407.3163    14.397285   -241.53531    775.50291    291.48944 
15000000     15000000     292.4698    107159.33    852.04148   0.81895482   -891.73972    2376.6269    531.95529    1443.3945    580.77462   -20.457489    172.59765   -418.82158    292.46766 
15200000     15200000    293.81215    107159.33    186.34649   0.81895482   -798.83462    2484.5329    962.38381    188.15179   -591.49613    527.63253    172.63618   -56.716249    293.81127 
15400000     15400000    294.64137    107159.33    112.03054   0.81895482   -867.57089    2425.0632    148.32971    403.53088   -215.76898     922.2047    342.55528   -254.35914    294.63951 
15600000     15600000     287.1286    107159.33    -623.4701   0.81895482   -960.39413    2248.2842   -617.62484   -1045.2238   -207.56163    199.09734   -118.50177   -125.93235    287.12654 
15800000     15800000    292.53826    107159.33   -79.156191   0.81895482   -915.94565     2353.186   -1081.6889    183.31424    660.90606   -554.38877   -556.09546   -103.56824    292.53516 
16000000     16000000    291.29382    107159.33   -757.70302   0.81895482       -891.3     2363.925    -1336.832   -321.16085   -615.11616    362.65624   -4.0772997   -290.87619    291.29113 
16200000     16200000    296.34533    107159.33    701.47917   0.81895482   -929.91153    2381.7643    499.15828    1449.6409    155.63838   -315.85412   -241.11069    63.312043    296.34309 
16400000     16400000    299.66651    107159.33   -190.02701   0.81895482   -872.88928    2475.9011   -31.213963   -207.07938    -331.7877   -755.13932    262.65565    70.912711    299.66438 
16600000     16600000    296.35237    107159.33    4.5722884   0.81895482   -1007.2501    2304.5044    748.98885     50.72304   -785.99502    23.509731    370.60283    41.388564    296.34973 
16800000     16800000    292.85345    107159.33   -1070.2557   0.81895482   -970.90471    2301.7493   -847.02017    -1196.334   -1167.4129   -26.497379   -134.43062   -810.36632    292.85071 
17000000     17000000    295.15516    107159.33   -115.94382   0.81895482   -892.61338    2405.7623   -708.02904   -13.983482    374.18107    342.18787   -14.234291   -826.69488    295.15291 
17200000     17200000     299.3157    107159.33    1020.1572   0.81895482   -896.60169    2448.2683    1001.7226    718.10713    1340.6418   -36.958173   -740.56421   -799.00199     299.3128 
17400000     17400000    292.00633    107159.33   -45.645436   0.81895482   -1041.1788    2222.0085    -119.4062    296.79019    -314.3203   -588.43924   -387.57144   -336.95627    292.00278 
17600000     17600000    294.12115    107159.33    123.85983   0.81895482   -884.94228    2401.8783   -80.007337   -553.58291    1005.1697    606.06622    506.38581   -199.14855    294.11825 
17800000     17800000    298.21895    107159.33   -338.79653   0.81895482   -969.57545    2363.0383   -913.71407     340.8096   -443.48511   -133.96555    679.03252    -465.4433    298.21614 
18000000     18000000    287.98861    107159.33    94.631032   0.81895482   -943.50363    2274.7855    94.150718   -170.84276    360.58513   -148.47853     -142.963   -53.506187    287.98666 
18200000     18200000    292.79989    107159.33   -913.65966   0.81895482   -853.80824    2418.2472   -1090.4535   -1215.7277   -434.79777    135.16892   -31.730763   -31.244756    292.79705 
18400000     18400000    293.85009    107159.33    142.28805   0.81895482    -928.2819    2355.5095   -37.510224   -115.62805    580.00243    7.7134718    128.53665    703.60947    293.84753 
18600000     18600000    291.30647    107159.33    22.991375   0.81895482   -858.38036     2396.986   -288.63539    273.30016    84.309351   -381.25894   -75.921291   -121.22311    291.30378 
18800000     18800000    298.45456    107159.33    220.65736   0.81895482    -868.5476    2466.6991    55.815903    945.24911   -339.09292    -362.9351    902.64087     208.9657    298.45242 
19000000     19000000     287.2419    107159.33   -649.61228   0.81895482    -861.8365     2348.108   -765.70317   -721.51428   -461.61939   -726.79303   -60.457876    989.13408    287.23873 
19200000     19200000     289.6844    107159.33    178.47553   0.81895482   -874.53974    2362.6999    38.257255   -111.27176    608.44108    4.7196669    107.32025    295.71726    289.68202 
19400000     19400000    291.86204    107159.33   -93.219909   0.81895482   -943.00931    2318.5655    -442.9391    86.705226    76.574148   -104.86347    930.50092    447.22004    291.85919 
19600000     19600000    285.82199    107159.33   -246.18674   0.81895482   -933.24414    2260.8328     289.4796   -1132.2815    104.24165   -310.24221    -345.7902   -173.92177    285.81944 
19800000     19800000    285.44774    107159.33    100.10208   0.81895482   -927.09641    2262.7983   -417.00322   -270.63388    987.94334   -66.398395    244.71915    442.55961      285.445 
20000000     20000000    289.35013    107159.33    186.36813   0.81895482    -895.9042       2337.6    540.76227    -157.0627    175.40481     385.8615   -414.49864     436.0685     289.3468 
20200000     20200000    297.18105    107159.33   -235.73589   0.81895482   -935.51062    2385.5045    303.11158   -331.33996    -678.9793   -245.41968   -906.43658    231.71744    297.17746 
20400000     20400000     298.0745    107159.33   -3.8644915   0.81895482   -1002.6365     2328.363    311.32763   -636.29842    313.37731   -81.404607    134.23925    53.978779    298.07156 
20600000     20600000    290.91825    107159.33    -278.9215   0.81895482   -983.00719    2268.0208    29.628292   -428.58129    -437.8115    487.47524   -293.25247    146.40051    290.91451 
20800000     20800000     297.2906    107159.33    97.501141   0.81895482   -909.81575    2412.4236   -469.66591    89.122077    673.04726    306.30943    207.89168    303.79356    297.28766 
21000000     21000000    292.12663    107159.33    336.38521   0.81895482   -974.68027    2289.8514    623.64568    469.60175   -84.091799    25.636796   -256.25649    160.11639    292.12361 
21200000     21200000    300.42714    107159.33    186.92528   0.81895482   -939.58464    2417.7058    465.43464   -34.682989    130.02421   -554.52239    5.0693008    45.004115    300.42559 
21400000     21400000    296.92497    107159.33   -197.60499   0.81895482   -852.57363    2465.5797    106.84906   -862.81082    163.14679   -128.27123    161.51045   -185.15755    296.92153 
21600000     21600000    294.69443    107159.33   -153.72465   0.81895482   -907.88199     2385.345   -754.70001    652.34704   -358.82098   -396.20812    -123.2188   -703.53235    294.69137 
21800000     21800000    290.72931    107159.33   -20.826505   0.81895482   -842.23849    2406.6781   -358.65271    -54.25655    350.42974   -281.25776   -430.44159   -532.24481    290.72681 
22000000     22000000    286.86343    107159.33   -420.92238   0.81895482   -911.36585    2294.3493   -586.94124   -679.47417    3.6482567    194.70428   -190.67906   -235.42215    286.86077 
22200000     22200000     291.6642    107159.33    61.426323   0.81895482   -865.27127    2394.0927    631.48455    424.12033   -871.32591   -525.12891   -609.57213   -718.78537    291.66067 
22400000     22400000    292.69324    107159.33    422.27287   0.81895482   -843.79327    2427.0703    275.32384   -160.83382    1152.3286    169.74393    38.633921   -823.01226    292.68936 
22600000     22600000    298.84202    107159.33    308.81458   0.81895482   -895.65581    2443.9208   -255.54767    412.36716    769.62426    689.24112    46.212714   -336.66283    298.83889 
22800000     22800000    290.78273    107159.33    260.44139   0.81895482   -920.11419    2329.3994    404.02115   -20.474663     397.7777   -192.29007   -940.94994    14.958538    290.77892 
23000000     23000000    291.52845    107159.33   -73.501071   0.81895482   -869.04107    2388.8059    21.233325    394.86572   -636.60225   -688.31744    205.18249   -727.86771      291.526 
23200000     23200000    294.37853    107159.33   -724.94249   0.81895482   -865.20306    2424.4938    -860.9022   -777.56251   -536.36277   -305.19206   -244.58587   -240.62067    294.37566 
23400000     23400000    280.38838    107159.33   -503.23935   0.81895482   -842.59811     2290.758   -126.43689   -581.58242   -801.69875   -438.20359    226.13134    352.37901    280.38521 
23600000     23600000    290.99596    107159.33    463.98195   0.81895482    -945.8616    2306.0348    869.28448    413.01733    109.64404    53.710044   -232.34861   -667.84493    290.99233 
23800000     23800000    296.59835    107159.33    46.005237   0.81895482    -865.3439    2449.1595    456.81594   -424.73645    105.93621    449.50149    559.67927    -16.53511    296.59463 
24000000     24000000    292.27832    107159.33    343.00771   0.81895482   -884.92807    2381.2987     698.5071    20.615499    309.90053   -753.27798   -84.349923   -266.89033    292.27458 
24200000     24200000    294.75119    107159.33    134.11138   0.81895482   -779.81514    2514.0461    590.87513   -500.98441    312.44342     -616.721    330.12046   -67.844819    294.74791 
24400000     24400000    291.99914    107159.33    263.99149   0.81895482   -935.68614    2327.4208     550.6997    201.31286      39.9619    -52.56943    635.56626   -773.99114    291.99632 
24600000     24600000    295.67202    107159.33    489.40924   0.81895482   -853.30286    2450.8488    47.355473    813.30242    607.56984    44.694197    14.818213    174.83393    295.66876 
24800000     24800000    293.29824    107159.33   -453.10159   0.81895482   -855.93254     2421.692   -103.11831   -840.62446   -415.56201     249.1194   -18.775594    -179.5741    293.29422 
25000000     25000000    286.16967    107159.33    212.43961   0.81895482   -871.28494    2326.6774    586.19722    149.94156    -98.81996   -48.842713    469.43998    205.86077    286.16503 
25200000     25200000    292.93845    107159.33    596.29492   0.81895482   -899.58701    2374.0168    264.82627    1283.0916    240.96692   -299.02426    -812.7914   -7.0508271    292.93553 
25400000     25400000    295.94336    107159.33    679.44086   0.81895482   -872.58539    2434.5985    940.34989    489.74095    608.23173   -5.9866115    186.35092     56.60002     295.9393 
25600000     25600000    286.91181    107159.33    233.87184   0.81895482    -872.0815    2334.1743   -347.96298    556.74984    492.82866    178.52179    79.438541    402.33675    286.90808 
25800000     25800000    301.10571    107159.33   -193.75092   0.81895482   -884.68898    2480.1845    -810.3354    979.50267   -750.42003   -302.32514   -263.14717   -482.54334    301.10109 
26000000     26000000    293.57893    107159.33   -161.44201   0.81895482   -908.59011    2372.1711   -366.00277   -68.664752   -49.658499     349.4211   -305.78977    612.64942    293.57447 
26200000     26200000    287.42394    107159.33   -379.21325   0.81895482   -883.10646    2328.8724    -972.0016   -156.79187   -8.8462619     706.6328     569.6723   -169.35126    287.42086 
26400000     26400000    289.83616    107159.33   -354.19718   0.81895482   -781.51557      2457.42   -76.208616   -266.46296   -719.91996    340.46472   -313.88193    149.37935    289.83202 
26600000     26600000    291.95027    107159.33      209.498   0.81895482    -884.0335    2378.5274    183.36155    576.93987   -131.80742    212.26407   -247.94887   -213.73358    291.94658 
26800000     26800000    296.88539    107159.33    68.302502   0.81895482    -819.3822    2498.3289    771.57801    336.71164   -903.38214    431.66706    566.77206   -324.25076    296.88163 
27000000     27000000    298.36654    107159.33    270.29573   0.81895482   -871.77929    2462.4838    483.56737    104.74952     222.5703    348.89043    307.29091    449.61019    298.36311 
27200000     27200000    292.42814    107159.33     208.0016   0.81895482   -906.28602    2361.6151    350.60698    113.83263     159.5652    884.27767   -50.185576    207.63371    292.42502 
27400000     27400000    289.98737    107159.33   -580.46523   0.81895482   -974.06415    2266.5612   -586.04903   -33.163262   -1122.1834    92.048896     103.4267    286.58988    289.98382 
27600000     27600000     298.1128    107159.33    283.96599   0.81895482   -839.81019    2491.6173    529.20259   -39.412169    362.10754   -774.02642    117.29056   -299.36793    298.10831 
27800000     27800000    293.15458    107159.33     200.1114   0.81895482   -843.11862    2432.9005    682.92684    450.75487    -533.3475   -187.14427    114.14206   -124.20781    293.14958 
28000000     28000000    293.10005    107159.33   -41.558623   0.81895482   -890.27803    2385.1316   -839.08513    560.23056     154.1787   -239.65076    227.23787    323.22637    293.09643 
28200000     28200000    300.34773    107159.33   -123.27154   0.81895482   -808.39369    2548.0093    311.06603   -124.82737   -556.05327   -455.12294   -545.46501   -105.50621    300.34382 
28400000     28400000    293.28398    107159.33     261.7981   0.81895482   -881.67856    2395.7866    168.44423    369.87513    247.07496   -271.27352     463.0418    495.39204    293.28042 
28600000     28600000    297.38811    107159.33   -597.08918   0.81895482   -928.29998     2395.029    -714.7524   -549.45944   -527.05569    183.18772    363.98045   -106.20563    297.38526 
28800000     28800000    295.22304    107159.33    -268.7556   0.81895482   -937.65994    2361.4743   -185.40238   -923.13077    302.26635   -120.34685    294.77525    26.137271    295.21829 
29000000     29000000    295.59494    107159.33   -673.04404   0.81895482   -857.94287    2445.3474   -423.37742   -1062.3728    -533.3819   -770.33023   -433.44942   -544.46809    295.59029 
29200000     29200000    287.84879    107159.33    642.14985   0.81895482    -882.0444    2334.6822    912.45448    784.98797    229.00708    50.692783   -157.31211   -269.30159    287.84544 
29400000     29400000    294.14196    107159.33     480.4761   0.81895482   -936.56647    2350.4867    626.73675    771.87847    42.813071    24.198991   -608.04412   -878.17527    294.13807 
29600000     29600000    296.72577    107159.33    269.61671   0.81895482   -841.95438    2473.9729   -492.23969   -368.51005    1669.5999    155.52881   -358.37346    219.83248    296.72096 
29800000     29800000    300.42453    107159.33    815.74082   0.81895482   -941.91948    2415.3418    518.67758    1543.1646    385.38027    75.887706   -24.606684    623.22617    300.41941 
30000000     30000000    288.27297    107159.33   -46.909418   0.81895482    -933.6765    2287.7904   -170.56379    -293.8597    323.69524   -135.09104    33.844396   -3.8026331    288.26801 
30200000     30200000    288.03835    107159.33    391.31384   0.81895482   -855.61483    2363.2301    304.13413    308.75415    561.05325   -625.94523   -418.16126   -118.18591    288.03439 
30400000     30400000    297.89827    107159.33    476.12915   0.81895482   -839.51826    2489.5119    478.84706    1508.0441   -558.50374    108.61593    177.73148    198.85782    297.89381 
30600000     30600000    296.72171    107159.33    158.57087   0.81895482   -853.04235    2462.8397    52.179166      27.7287    395.80473    281.85369    45.046712     402.7709    296.71843 
30800000     30800000    295.09459    107159.33   -279.91817   0.81895482   -910.63759    2387.0612    55.197213   -383.63905   -511.31267    230.76357    658.43415    604.09001    295.09102 
31000000     31000000    290.57193    107159.33   -240.76501   0.81895482    -856.5198    2390.6381   -179.03789    -403.6913   -139.56582    531.12498   -90.912375   -477.25017    290.56805 
31200000     31200000    296.35458    107159.33    175.85891   0.81895482   -881.11366    2430.6656    330.60536    161.46853    35.502833    464.54486   -132.28296   -12.173399    296.35002 
31400000     31400000    288.23142    107159.33   -244.67442   0.81895482   -966.43513    2254.5674   -47.924804   -780.46266     94.36419    57.145315   -6.9762181    195.11932    288.22747 
31600000     31600000    294.00065    107159.33    114.41328   0.81895482   -926.71812    2358.7559    381.62391    520.33608   -558.72016   -461.15079    435.52408    147.81042    293.99717 
31800000     31800000    296.29715    107159.33      513.605   0.81895482   -933.36787    2377.7697    369.85154    792.84274    378.12072   -288.38775   -42.365072   -321.01491    296.29321 
32000000     32000000    291.54251    107159.33     5.829802   0.81895482   -903.68453    2354.3196   -141.85847    502.94863   -343.60075    270.11779    -25.51186   -435.87077    291.53798 
32200000     32200000    294.10864    107159.33    50.995968   0.81895482   -810.77171    2475.9091   -56.724903   -202.04989    411.76269    484.06757   -470.85926   -157.00386    294.10437 
32400000     32400000     292.2925    107159.33   -404.75147   0.81895482   -915.38455    2351.0007   -991.11215   -475.93562    252.79336   -188.64697    617.37607    -125.3994     292.2875 
32600000     32600000    290.84649    107159.33    81.915168   0.81895482    -904.2225    2346.0036    148.46127     421.2544   -323.97016    692.43074    174.31821    230.24513    290.84237 
32800000     32800000    288.30955    107159.33     -139.287   0.81895482   -865.69751    2356.1781    460.50566   -606.94995   -271.41672   -198.40106     97.04262   -362.68672    288.30571 
33000000     33000000    300.95277    107159.33   -140.64599   0.81895482    -903.6179    2459.5464    -31.65353   -357.73501   -32.549423   -73.026073   -134.48489   -716.25419    300.94808 
33200000     33200000     299.8953    107159.33    285.92107   0.81895482   -944.77239    2406.5746    341.10444    217.65584    299.00294   -314.21807    622.62881    -36.37374    299.89131 
33400000     33400000    292.13883    107159.33    48.757495   0.81895482   -934.31553    2330.3525   -287.44479    406.20163    27.515642   -267.90029    36.902049   -254.78283    292.13303 
33600000     33600000     301.8716    107159.33   -111.99061   0.81895482   -895.86999    2477.5623    66.193143    23.181744   -425.34673   -232.19318     129.3809   -39.004288    301.86751 
33800000     33800000     296.1371    107159.33   -119.75567   0.81895482   -1008.8445    2300.5045    176.04471    -105.4375   -429.87423    319.77956   -231.53311    586.55853    296.13201 
34000000     34000000    285.46173    107159.33   -402.53269   0.81895482   -835.47792    2354.5731   -749.29376   -182.44303   -275.86128    204.36634    92.565624   -1.3740668     285.4578 
34200000     34200000    291.86882    107159.33    640.14777   0.81895482   -969.54213    2292.1085   -360.08643       1054.2    1226.3297    -243.1382   -253.48057   -6.7494858    291.86396 
34400000     34400000    295.13326    107159.33    -169.5197   0.81895482   -866.66945    2431.4615   -393.95063    196.75547   -311.36393    249.47607    247.38098    355.10181    295.12958 
34600000     34600000    301.26297    107159.33    210.34753   0.81895482   -909.15881     2457.472    48.431373    997.77942    -415.1682   -20.127518     1031.416   -679.88671    301.25811 
34800000     34800000    293.94156    107159.33   -64.408577   0.81895482   -914.00895    2370.8047   -67.515075   -833.18979    707.47914   -363.00492    311.26605    757.45539    293.93725 
35000000     35000000    298.69715    107159.33     569.2265   0.81895482   -872.96848    2464.9891    423.63203    803.08327    480.96422    -387.1549    173.75544   -131.35606    298.69169 
35200000     35200000    287.92175    107159.33    279.46963   0.81895482   -883.02373    2334.5182   -74.210104    800.59682    112.02217   -129.06822    113.70349    402.69694    287.91673 
35400000     35400000      291.138    107159.33    234.33852   0.81895482   -891.63437    2361.8494    207.18731   -373.04259    868.87083   -443.67493    268.96502    290.97261    291.13328 
35600000     35600000    299.73571    107159.33    325.15696   0.81895482   -982.14554    2367.4181    24.636257    539.69741    411.13722    147.75918   -552.22489    704.24845    299.73017 
35800000     35800000    290.87242    107159.33    18.855449   0.81895482   -902.05125    2348.4646    55.784467    6.6625464   -5.8806673    -938.8243    -258.4258   -591.24023    290.86782 
36000000     36000000    292.21185    107159.33   -600.78966   0.81895482   -929.54331    2335.9407   -497.16699   -502.69773   -802.50425    499.73729    78.418273    475.60225     292.2074 
36200000     36200000    288.00799    107159.33    648.38956   0.81895482   -840.79432    2377.7113    997.14322    651.70679    296.31866   -11.457507    -264.0631   -17.151409    288.00326 
36400000     36400000    293.13822    107159.33   -224.43204   0.81895482   -896.86712    2378.9691   -415.95111   -183.72159   -73.623411    52.844583    -650.0691    464.74575    293.13303 
36600000     36600000    289.96461    107159.33   -592.21826   0.81895482   -962.99017    2277.3808   -412.82117   -767.45826   -596.37536   -170.24196    269.20206    464.45967    289.95971 
36800000     36800000    296.40745    107159.33     273.0527   0.81895482   -846.91802    2465.4521   -43.475119    914.26796   -51.634745   -413.99485    45.433813    753.11685     296.4024 
37000000     37000000    294.71498    107159.33   -680.16849   0.81895482   -932.34658      2361.11   -717.43213   -1278.9254   -44.147938   -495.87759   -153.27504    -441.0508    294.70973 
37200000     37200000    294.05777    107159.33    179.14038   0.81895482   -931.74288    2354.3694    1241.1337   -564.86423   -138.84832   -543.06708   -329.58393   -168.25789    294.05293 
37400000     37400000    291.86546    107159.33   -577.38994   0.81895482   -868.51653    2393.0966    -27.28489   -1286.3704   -418.51456   -225.59527    215.64942    176.26446    291.86057 
37600000     37600000     295.3357    107159.33    16.996406   0.81895482   -884.09516    2416.2981    -205.5234    409.22523   -152.71261    463.28466   -485.59665   -86.009675    295.33059 
37800000     37800000    298.04832    107159.33   -220.67449   0.81895482   -939.61093     2391.096    499.51547   -305.37156   -856.16739   -352.80529   -819.34654   -308.11053    298.04338 
38000000     38000000    292.38807    107159.33    -514.1387   0.81895482   -905.05736    2362.3959   -140.76956   -619.95614   -781.69041   -0.1980178    537.22046   -335.05744    292.38371 
38200000     38200000    294.60756    107159.33    398.05893   0.81895482   -911.19442    2381.0619     37.04154    544.65555    612.47969   -181.74306    875.29154   -581.69499    294.60244 
38400000     38400000    298.11393    107159.33   -719.26329   0.81895482    -908.5638    2422.8764   -814.48378   -895.35578   -447.95032    245.09861    112.50305   -463.55371    298.10918 
38600000     38600000    287.86819    107159.33   -168.98154   0.81895482   -909.28048    2307.6629   -608.67028   -49.294274    151.01995   -338.51592    153.77527    -265.5628    287.86261 
38800000     38800000    293.78251    107159.33   -93.677053   0.81895482   -852.31781    2430.7184   -48.327211   -418.66757    185.96362     627.9058    128.84172    6.4493772    293.77651 
39000000     39000000    295.54782    107159.33   -717.96358   0.81895482   -1028.1346    2274.6292   -876.55027   -567.84972   -709.49076   -16.433363    117.25641   -67.447056    295.54317 
39200000     39200000    290.30252    107159.33   -149.44794   0.81895482   -843.36698    2400.7802   -355.52837   -244.03016     151.2147    267.87556    536.30591    538.12058    290.29846 
39400000     39400000    297.36616    107159.33    227.20488   0.81895482   -1037.9625    2285.1213    564.44252    472.70304   -355.53091   -882.69568    138.21975    410.93011    297.36134 
39600000     39600000     291.6276    107159.33    61.143031   0.81895482   -944.62521    2314.3299    585.75964    220.75728   -623.08782   -698.65824   -78.545478    590.07648    291.62239 
39800000     39800000    295.24632    107159.33   -96.534511   0.81895482   -874.65734    2424.7371   -530.03407   -133.68459    374.11512   -354.06762   -205.63007   -302.19952    295.24128 
40000000     40000000    292.22043    107159.33   -211.25701   0.81895482   -944.84657    2320.7333   -563.56674   -220.61931    150.41502    494.86037    526.60456     269.9476    292.21592 
40200000     40200000    295.33636    107159.33   -704.47537   0.81895482   -837.28103    2463.1196   -324.95885    -1442.375    -346.0923   -5.6887424    370.94083   -76.478468    295.33138 
40400000     40400000     290.4998    107159.33    388.95567   0.81895482   -941.96692    2304.3848    117.05913    169.24455    880.56332   -70.879939   -179.27104    259.76214    290.49529 
40600000     40600000    291.41625    107159.33   -460.88811   0.81895482   -870.14244    2386.4508   -486.91304    -660.5423     -235.209   -932.89674   -85.781048    260.49545    291.41076 
40800000     40800000    294.24756    107159.33    29.449705   0.81895482   -909.66645    2378.5668    340.23921   -66.185609   -185.70448    114.91488    151.10889    278.66362    294.24255 
41000000     41000000    291.11738    107159.33    643.47486   0.81895482   -1004.3656    2248.8877     545.3911    688.05356    696.97991   -281.53167    263.32062    703.35044    291.11298 
41200000     41200000    290.21199    107159.33   -376.81133   0.81895482   -831.99467    2411.1408   -273.32157   -645.88286   -211.22957   -677.60951    489.55584   -382.12151    290.20745 
41400000     41400000     290.5003    107159.33   -219.77343   0.81895482   -994.88435     2251.473   -186.76095    -170.2981   -302.26122    240.15022    -292.7831   -131.75219    290.49496 
41600000     41600000    293.67844    107159.33   -171.59284   0.81895482   -945.59926     2336.274   -366.99793   -373.03382    225.25322    7.2669159    234.29636    510.30568    293.67404 
41800000     41800000    289.43686    107159.33   -377.22708   0.81895482   -789.80851    2444.6649   -300.16472   -473.89769   -357.61884    -637.4604   -196.52393    260.65493    289.43241 
42000000     42000000    295.11237    107159.33   -116.79393   0.81895482   -840.05204    2457.8455   -711.33622    546.05272    -185.0983   -378.97851   -31.869199    225.08966     295.1074 
42200000     42200000    293.09688    107159.33    795.23224   0.81895482   -968.03884    2307.3354    686.02391    786.81523    912.85759   -68.653869    374.67616    718.05264    293.09152 
42400000     42400000    284.42478    107159.33   -438.61425   0.81895482   -889.89397    2288.5691     -7.26419   -471.87368   -836.70489   -481.37653   -112.83467    491.05074    284.41981 
42600000     42600000    293.22042    107159.33   -320.85965   0.81895482   -886.02935    2390.7256   -38.530955    -511.5963    -412.4517   -211.33613   -836.11935   -123.79424    293.21476 
42800000     42800000    293.32163    107159.33    25.661314   0.81895482   -928.11544    2349.7705    529.98326   -369.46097   -83.538348    318.88581    141.96899    251.16569    293.31622 
43000000     43000000    298.54558    107159.33    -244.5496   0.81895482   -870.96605    2465.2978   -723.25355    604.86599   -615.26123   -168.86102    690.46259   -553.63848     298.5389 
43200000     43200000     295.5398    107159.33    470.32855   0.81895482   -915.43403      2387.24    626.00873    599.83339    185.14352   -161.49124   -376.06382   -330.71944     295.5334 
43400000     43400000     298.7688    107159.33   -1342.6132   0.81895482   -915.52956    2423.2288   -1712.2096   -1470.0247   -845.60526   -89.343258   -261.96942   -570.06511    298.76367 
43600000     43600000    289.76398    107159.33    235.46798   0.81895482   -876.68728    2361.4417    -375.1607   -259.36025    1340.9249   -175.87756    608.36954   -91.766632     289.7582 
43800000     43800000    294.38412    107159.33     952.5845   0.81895482   -932.42723    2357.3321   -95.991092    1747.6321    1206.1125   -330.80429    187.61262   -362.17365    294.37884 
44000000     44000000    296.33716    107159.33   -162.10532   0.81895482   -925.30493    2386.2797   -10.572068   -323.01524   -152.72865   -566.75843   -318.07104   -215.43192    296.33258 
44200000     44200000     288.3257    107159.33    446.96498   0.81895482   -837.19161    2384.8645    271.42093    728.97436    340.49966    331.17153   -178.98614   -203.98531    288.32026 
44400000     44400000    299.32415    107159.33   -25.988601   0.81895482   -820.39922    2524.5651   -248.69625    135.11801    35.612438    138.24751   -844.76824   -168.66475    299.31766 
44600000     44600000     293.7899    107159.33    -16.69642   0.81895482    -917.6237    2365.4951    116.85119    588.60275   -755.54321    -221.8612    211.19595    328.93173    293.78374 
44800000     44800000    295.07374    107159.33    367.76299   0.81895482   -933.06032    2364.4055     968.3761   -193.45927    328.37213    614.73792   -570.30744    493.54033    295.06781 
45000000     45000000    295.61069    107159.33    17.268191   0.81895482   -958.24341    2345.2228   -22.183676    677.89036   -603.90211    265.97088    402.32361   -146.84459    295.60534 
45200000     45200000    286.56145    107159.33    73.484632   0.81895482   -817.84444     2384.496    424.79356   -180.63905    -23.70062    505.80646   -357.32417     -303.968    286.55567 
45400000     45400000    294.28661    107159.33   -609.14968   0.81895482   -946.23326    2342.4364   -618.61074   -780.38304   -428.45525    -29.30998     521.0937    492.73019    294.28091 
45600000     45600000    291.12371    107159.33   -345.67685   0.81895482   -970.46566    2282.8583   -216.77016   -340.43069   -479.82969    184.95499    245.29075    351.80869     291.1183 
45800000     45800000    295.08287    107159.33     -198.707   0.81895482   -910.06608    2387.5018   -1123.9184    713.73652   -185.93913    628.62224    372.35907    109.94088    295.07669 
46000000     46000000    299.00975    107159.33    517.65005   0.81895482   -891.73973    2449.7112    1444.0566   -483.67842      592.572   -133.59832   -93.214053   -429.72719    299.00407 
46200000     46200000    295.06787    107159.33   -302.41088   0.81895482    -924.7042    2372.6961    -785.9557    136.74005     -258.017    624.28816    -193.4796    131.61756    295.06217 
46400000     46400000    294.52625    107159.33   -523.12353   0.81895482   -851.77922    2439.5684   -760.95486   -642.13986   -166.27587   -602.88587    68.955869    465.72913     294.5196 
46600000     46600000    289.54838    107159.33    207.07711   0.81895482   -850.79914    2384.9204   -116.91896    315.12519    423.02511   -65.042239    407.92503    25.102877    289.54188 
46800000     46800000     299.9411    107159.33   -243.73448   0.81895482   -812.56005    2539.2988    158.25456   -444.21471   -445.24329   -325.95545    201.10743    396.79807    299.93607 
47000000     47000000    286.74561    107159.33    566.25044   0.81895482   -873.42614    2330.9724    211.85427    598.90425     887.9928   -195.70879    109.51744   -229.48882    286.74029 
47200000     47200000    295.21264    107159.33    113.42871   0.81895482   -894.77222    2404.2458    153.62266   -51.246848    237.91033     -179.282   -7.4419108    77.164966     295.2073 
47400000     47400000    297.85268    107159.33   -493.93264   0.81895482   -949.31725    2379.2034    -1323.859   -354.31922    196.38032   -313.65635   -336.06827    490.81743    297.84612 
47600000     47600000    288.37923    107159.33    683.78365   0.81895482   -947.55108    2275.1033    239.79627    663.19172     1148.363    474.94475   -679.97075     917.3675    288.37258 
47800000     47800000    294.46589    107159.33    263.55014   0.81895482   -955.80016    2334.8729   -137.68011    1046.9637   -118.63319    204.82439   -70.019811    212.78491    294.46003 
48000000     48000000    296.81777    107159.33   -264.58087   0.81895482   -950.23341    2366.7221   -726.11319   -221.67656    154.04713   -441.80648   -223.70005    257.45122    296.81084 
48200000     48200000    292.59354    107159.33    694.59286   0.81895482   -931.54014    2338.2093   -61.662212     1137.344    1008.0968      205.599    152.47353    16.894213    292.58588 
48400000     48400000    294.43614    107159.33       568.03   0.81895482   -947.87633    2342.4643    802.08209    229.63517    672.37273   -544.67789    467.79959    23.944763    294.43009 
48600000     48600000    295.80118    107159.33   -947.90535   0.81895482   -857.04657    2448.5485   -829.14231   -459.86438   -1554.7093    956.83199   -680.76639    449.63762    295.79509 
48800000     48800000    295.08984    107159.33   -498.99103   0.81895482   -956.64237    2341.0034   -380.97928   -833.00753   -282.98626   -10.673632   -959.90523   -85.273735    295.08246 
49000000     49000000     298.9082    107159.33    71.129614   0.81895482   -947.11302    2393.2032    471.67277   -540.47123     282.1873   -317.77665   -463.21443    -248.2634    298.90172 
49200000     49200000    290.55741    107159.33   -288.39146   0.81895482   -897.97092    2349.0247    406.56849    -358.3884   -913.35447   -225.66791   -683.86978    94.284118    290.55028 
49400000     49400000    297.64179    107159.33   -102.05314   0.81895482   -868.08205    2458.0819    361.34743    438.31348   -1105.8203    448.47051    82.523651    224.32481    297.63601 
49600000     49600000     296.1789    107159.33    20.907172   0.81895482   -923.98035    2385.8357    358.77273   -803.81747    507.76625    367.95172    -54.44812   -374.39603    296.17276 
49800000     49800000    296.98798    107159.33   -23.636206   0.81895482   -967.83494    2351.0226   -342.29327   -302.21637    573.60103    441.09212    769.59977    335.85778    296.98231 
50000000     50000000    292.24835    107159.33    382.76213   0.81895482   -833.15556    2432.7364    744.42725   -401.56508    805.42422   -699.35039    -487.9801    136.75927    292.24249 
50200000     50200000    291.27486    107159.33    335.73959   0.81895482   -877.10823    2377.9049    366.76411    398.77426     241.6804   -448.90964   -245.22452   -325.62019    291.26784 
50400000     50400000    290.40702    107159.33    1320.0374   0.81895482   -857.45466    2387.8603    737.95074    1269.7143    1952.4471    -793.2835    96.084079    676.72623    290.40146 
50600000     50600000    297.67689    107159.33   -5.9140882   0.81895482   -896.28498    2430.2711   -272.09241    508.31072   -253.96058    284.10237    13.447731   -196.90662    297.66983 
50800000     50800000      293.173    107159.33   -545.02218   0.81895482   -922.02937    2354.1956   -780.62392   -382.28922   -472.15339   -111.16827   -13.991819    947.40459    293.16619 
51000000     51000000    287.54189    107159.33   -288.06282   0.81895482   -849.04097     2364.256    -606.9029   -211.38496   -45.900605    490.40331   -471.52786    682.35685    287.53419 
51200000     51200000       289.81    107159.33   -576.36933   0.81895482   -918.94094    2319.7022   -37.033218   -710.63082   -981.44396   -374.48627    677.13412   -57.621682    289.80354 
51400000     51400000    291.99315    107159.33    813.32817   0.81895482   -960.29622    2302.7439    610.05192    432.09058     1397.842    526.80371    172.10779    264.50431    291.98681 
51600000     51600000    288.86106    107159.33    584.63428   0.81895482   -901.91861    2326.1202    107.24678    283.13718    1363.5189    146.62298   -600.77288    212.52701    288.85507 
51800000     51800000    290.53846    107159.33   -309.56548   0.81895482   -892.28204    2354.5018   -252.08526   -617.83884   -58.772339    223.42891     719.3667   -421.82374    290.53213 
52000000     52000000     286.2513    107159.33   -163.27607   0.81895482   -916.70445    2282.1701   -481.35691    393.75842   -402.22973   -38.164274    209.46355   -272.73429    286.24506 
52200000     52200000    295.04332    107159.33    663.52939   0.81895482   -945.76115    2351.3647    639.54325    738.04185    613.00308   -187.57339    140.66954   -166.75212    295.03639 
52400000     52400000    290.67541    107159.33   -365.95347   0.81895482   -932.22169    2316.0925   -399.73657    191.36997    -889.4938    173.69874   -3.1325144    38.640126    290.66821 
52600000     52600000    290.21787    107159.33    264.32928   0.81895482   -937.02882    2306.1724   -185.53232     761.2876    217.23255   -126.09485   -456.31004    364.27783    290.21102 
52800000     52800000    297.30311    107159.33   -66.832851   0.81895482   -964.47815    2357.9011   -150.92617    346.94684   -396.51923   -707.08084    198.64491   -820.78363     297.2967 
53000000     53000000    287.60479    107159.33    143.00975   0.81895482   -947.26257    2266.7373   -40.045754    23.048017      446.027    582.65086   -33.508896    85.068231    287.59727 
53200000     53200000    289.54213    107159.33    186.39674   0.81895482   -861.77913    2373.8706     -66.0671    900.54036   -275.28303    -87.80513   -88.811493   -391.12829    289.53563 
53400000     53400000    292.08034    107159.33    -884.8591   0.81895482   -865.15038    2398.8641   -611.32766   -1348.6032   -694.64646    425.94952   -148.31855    206.00296    292.07264 
53600000     53600000      292.264    107159.33     496.4452   0.81895482   -865.86026    2400.2065    1054.4639    285.67378    149.19793   -351.70451    613.76605    44.810166    292.25667 
53800000     53800000    302.37164    107159.33    141.95479   0.81895482   -908.35765    2470.6626    311.23829    607.57138   -492.94531    617.17557   -321.29686    128.27198    302.36564 
54000000     54000000    290.86241    107159.33   -33.768285   0.81895482   -860.17965    2390.2243    95.009733   -153.17299   -43.141597    214.09212    5.1882992   -394.45236    290.85515 
54200000     54200000    288.96251    107159.33   -27.776416   0.81895482   -913.84334    2315.3291    462.84183    160.32115   -706.49224    123.04239    253.85061   -427.82359    288.95605 
54400000     54400000    286.99267    107159.33   -144.96837   0.81895482   -996.04868    2211.1107    601.78019   -533.13345   -503.55185   -67.114367    362.74274    706.68845     286.9861 
54600000     54600000    295.95442    107159.33    261.31958   0.81895482   -852.04169    2455.2658   -54.076018    215.27021    622.76454    843.50846     122.5334   -28.672078    295.94654 
54800000     54800000    295.92364    107159.33   -105.12187   0.81895482   -860.57655    2446.3869   -3.6845499   -5.9839138   -305.69714    682.44194    210.55566   -36.402664    295.91651 
55000000     55000000    294.33343    107159.33   -477.71293   0.81895482   -939.63763    2349.5552   -785.06643   -406.04223   -242.03012   -571.14085   -201.30824   -156.40106    294.32678 
55200000     55200000    288.27699    107159.33    187.25756   0.81895482    -940.7967    2280.7151    1034.9994     145.1569   -618.38365    148.11516   -301.88761    153.66623    288.27015 
55400000     55400000    287.43112    107159.33   -117.29896   0.81895482   -873.81988    2338.2393    59.330954   -1090.3728    679.14503   -444.26082    123.27473   -18.240363    287.42341 
55600000     55600000    286.82092    107159.33    828.40017   0.81895482   -880.32695    2324.9132    872.95873      721.412    890.82978    -1.711185   -143.83484    294.81114    286.81373 
55800000     55800000    288.97173    107159.33    625.62524   0.81895482   -898.71777    2330.5578    807.15066    499.54321    570.18186    256.88352    276.03683    104.47794    288.96531 
56000000     56000000    290.43677    107159.33    972.29563   0.81895482   -877.87328    2367.7741     960.2548    497.67188    1458.9602     78.74329   -421.69957    69.648497    290.42982 
56200000     56200000    293.88024    107159.33   -519.31974   0.81895482   -996.50279    2287.6256   -932.49567    8.0460718   -633.50963    -367.8739   -189.35477    114.75114    293.87331 
56400000     56400000    294.16335    107159.33    77.918257   0.81895482   -899.58145    2387.7107    845.88364   -694.53773    82.408866   -437.83429    246.41249    47.722833    294.15639 
56600000     56600000    294.25896    107159.33    438.57726   0.81895482   -863.87246    2424.4881    457.64215   -127.37803    985.46766    151.16766    -259.0103   -292.41468    294.25175 
56800000     56800000    293.20758    107159.33    91.498242   0.81895482   -819.36807    2457.2433    767.20189   -430.76056   -61.946596   -769.77896   -34.410844    517.16233     293.1999 
57000000     57000000    295.26793    107159.33   -147.65318   0.81895482   -917.87751    2381.7584   -392.26263   -483.50846    432.81154   -239.10377    404.20087    178.74606    295.26061 
57200000     57200000    294.60482    107159.33   -441.90721   0.81895482   -871.15414    2421.0715   -765.79945    263.27491   -823.19709   -141.75362    -54.80605    57.951623    294.59701 
57400000     57400000    296.33381    107159.33    30.048439   0.81895482   -865.67471    2445.8724    446.45731   -521.19268    164.88069   -56.836279    -103.5633    -266.6842    296.32637 
57600000     57600000    293.25807    107159.33    198.57177   0.81895482   -912.09036    2365.0853   -255.60545    400.31856     451.0022    262.50769   -699.22495    -474.8235    293.25119 
57800000     57800000    293.43809    107159.33   -974.09163   0.81895482   -923.97422    2355.2131   -1121.6234   -879.42236   -921.22911   -289.55372   -106.32694   -207.28477     293.4306 
58000000     58000000    291.91446    107159.33   -565.12612   0.81895482   -989.51694    2272.6438   -117.42711   -751.16278   -826.78848   -400.05265   -212.51031    421.51253     291.9071 
58200000     58200000    289.21007    107159.33    1196.5821   0.81895482   -813.44152    2418.4974    1936.5693    928.08559    725.09128    375.36168    632.48715    341.91804    289.20214 
58400000     58400000    292.11373    107159.33   -461.20584   0.81895482   -999.41204    2264.9755    -465.3805   -808.83662   -109.40038   -73.786527   -248.45955    -17.16789    292.10528 
58600000     58600000    287.67101    107159.33   -921.81242   0.81895482   -853.81439    2360.9256   -1861.0732   -909.20079    4.8367373     280.6327    617.75782     64.31741    287.66377 
58800000     58800000    297.51475    107159.33   -201.51565   0.81895482   -853.27907    2471.4651   -33.815536   -436.27689   -134.45452   -332.96309    92.200168   -142.12393    297.50578 
59000000     59000000    291.86057    107159.33    453.59781   0.81895482   -935.74135    2325.8171   -16.689132    501.70167     875.7809   -721.75997    55.273959     276.9558    291.85277 
59200000     59200000    293.20517    107159.33   -713.34945   0.81895482   -924.14106    2352.4434    -871.7129   -483.96134    -784.3741   -55.923592    531.20203   -126.18466    293.19696 
59400000     59400000     295.0558    107159.33    843.17674   0.81895482   -926.60928    2370.6561     137.4025    1481.3044    910.82332   -294.05869   -219.16494   -586.26989    295.04721 
59600000     59600000    290.36697    107159.33   -741.92876   0.81895482   -975.15405    2269.7133   -112.43179   -728.28663   -1385.0679    200.27474    354.85588    85.708748    290.36023 
59800000     59800000    295.17605    107159.33    69.111104   0.81895482   -805.80114     2492.808    78.162746    311.73357   -182.56301   -37.242557    21.590974    264.63464     295.1679 
60000000     60000000    290.62475    107159.33   -354.38217   0.81895482   -876.10755    2371.6405   -442.08613   -445.27521   -175.78516   -221.96189    340.33429    142.17297    290.61839 
60200000     60200000    294.38521    107159.33    428.84453   0.81895482     -888.112    2401.6595    59.789629    40.366298    1186.3776   -657.83094    -169.9608    -640.0188    294.37824 
60400000     60400000    291.54394    107159.33    1024.1739   0.81895482   -903.54345    2354.4767    2101.5564    343.17685     627.7886   -460.74492    34.470408    503.27493     291.5367 
60600000     60600000    293.35944    107159.33   -70.301916   0.81895482   -909.20514    2369.1033    161.27456    321.96422   -694.14452    139.31614    186.85958    81.776224     293.3522 
60800000     60800000    285.52153    107159.33   -418.07768   0.81895482   -928.13703    2262.5824     -379.478   -900.38812    25.633065   -177.26809   -122.71208    525.60655    285.51431 
61000000     61000000    293.74358    107159.33   -178.97809   0.81895482   -891.00791    2391.5933   -787.55408     57.66098    192.95884   -96.680294   -152.27409    -424.4762     293.7367 
61200000     61200000    295.65574    107159.33    342.09209   0.81895482   -838.87522    2465.0945    934.51031   -362.07386    453.83981    101.94859    370.63903   -276.61367    295.64837 
61400000     61400000    296.15229    107159.33    215.78547   0.81895482   -846.72118    2462.7975   -216.58681    175.07507    688.86814   -390.13143   -770.49019   -385.71703     296.1449 
61600000     61600000    288.48192    107159.33   -1093.0775   0.81895482   -895.68548    2328.1164   -1192.9751   -1062.9849   -1023.2724    -231.3531    56.921179   -16.014072    288.47443 
61800000     61800000    292.65281    107159.33    196.83616   0.81895482   -925.13292    2345.2789    387.70264   -79.308402    282.11423    299.42419   -360.31931    66.288167    292.64464 
62000000     62000000    299.77382    107159.33   -689.50428   0.81895482   -1006.1549    2343.8346   -971.99784   -1066.4791   -30.035878   -544.99716    245.07892   -213.71952    299.76598 
62200000     62200000    287.84073    107159.33   -363.90319   0.81895482   -963.05569    2253.5808   -60.775367   -625.32767   -405.60652   -284.11528    -116.5936   -131.49918    287.83248 
62400000     62400000    291.06358    107159.33   -82.705117   0.81895482   -944.65905     2307.993    75.821784   -135.53284    -188.4043    288.45824   -379.62873   -134.05743     291.0563 
62600000     62600000     289.6948    107159.33    167.37277   0.81895482    -970.4274    2266.9285   -5.6551884    70.404539    437.36896    440.44072    1.9515392    309.54253    289.68701 
62800000     62800000    296.16972    107159.33    689.28477   0.81895482   -927.18534    2382.5282    595.73801    1313.1185    158.99775    178.29391    52.877547   -453.44687    296.16095 
63000000     63000000    290.68862    107159.33   -598.49905   0.81895482   -915.49467    2332.9672    -818.9898   -593.35993   -383.14742    237.78122    375.47251   -306.74051    290.68105 
63200000     63200000    290.46695    107159.33   -587.96475   0.81895482   -868.01525    2377.9694    300.25646    -817.9677    -1246.183   -382.21683    62.632197    167.55169    290.45822 
63400000     63400000      288.745    107159.33   -408.27097   0.81895482   -907.06752    2319.6743   -228.08348   -802.57288   -194.15654    139.06935   -700.42098   -240.23986    288.73758 
63600000     63600000    295.72653    107159.33    876.80895   0.81895482   -914.97535    2389.7854    1269.7607    863.00892    497.65719     471.5566    313.91041    152.57418    295.71949 
63800000     63800000     289.7845    107159.33    408.89149   0.81895482   -904.62735    2333.7309    715.76475   -186.08267    696.99239    207.24645    319.23199   -4.8012911    289.77591 
64000000     64000000    297.08926    107159.33   -348.41079   0.81895482   -989.07582    2330.9136   -587.34372   -699.20168    241.31302   -777.77069   -587.28906    717.36682    297.07972 
64200000     64200000    285.34606    107159.33   -29.941638   0.81895482    -933.3176    2255.4409   -785.23293   -65.598066    761.00608   -488.10163   -158.29121   -132.74766    285.33872 
64400000     64400000    300.06931    107159.33   -635.69228   0.81895482   -928.49525    2424.7963    -732.9806   -144.13732   -1029.9589   -400.48392   -58.524986   -352.68249    300.06139 
64600000     64600000    302.38012    107159.33    91.911002   0.81895482   -943.70695    2435.4081   -13.427082   -612.23226    901.39234   -394.93603   -47.298264    459.31252    302.37126 
64800000     64800000    291.62572    107159.33    -384.4385   0.81895482   -917.13306     2341.801   -240.22685   -592.63935   -320.44929    70.929347    274.71946   -225.95392    291.61742 
65000000     65000000    291.18763    107159.33   -392.25217   0.81895482   -944.60448    2309.4338    127.75477   -707.42225   -597.08904   -22.386422    -133.5715   -335.42936    291.17924 
65200000     65200000    289.34955    107159.33   -5.7830768   0.81895482   -923.70945    2309.7882    101.89128   -140.91364    21.673137    39.173754    1226.4402    -511.1623    289.34104 
65400000     65400000    298.47098    107159.33   -442.32973   0.81895482   -958.72416    2376.7061   -197.45252   -201.06871   -928.46796    -443.5973   -176.96113   -665.10259    298.46255 
65600000     65600000    290.28353    107159.33    338.39393   0.81895482   -908.89548    2335.0395    696.17655   -168.01578    487.02103    425.16095   -298.23854    -664.0292    290.27541 
65800000     65800000     291.5007    107159.33   -386.60884   0.81895482   -947.98652    2309.5503   -581.85745   -274.14726   -303.82181   -72.930712   -14.613071    837.66991    291.49247 
66000000     66000000    294.26813    107159.33    204.17985   0.81895482   -989.59238    2298.8707    278.15748   -32.075316     366.4574   -85.960914    128.70953    113.18646    294.26024 
66200000     66200000     300.2044    107159.33    213.04591   0.81895482    -923.5438    2431.2575   -362.40089    886.17541    115.36321    779.17106    175.86816    1.3033025     300.1954 
66400000     66400000    292.04844    107159.33   -430.99011   0.81895482   -856.61253    2407.0453   -638.33013   -530.17191   -124.46829    -655.6816    143.58483    380.88049    292.04109 
66600000     66600000    291.06391    107159.33    301.92815   0.81895482   -921.27215    2331.3836    548.66526    417.57102   -60.451838   -429.30089    687.42196    108.85038    291.05638 
66800000     66800000    290.68937    107159.33   -3.7420502   0.81895482   -991.66326     2256.807   -115.76552   -114.94665    219.48603    90.785641    162.57986   -65.774434    290.68134 
67000000     67000000    296.47661    107159.33    398.86491   0.81895482   -962.29088    2350.8521    727.73594    545.71852   -76.859738    197.25788    357.66572   -557.42647    296.46743 
67200000     67200000    293.37055    107159.33    480.01492   0.81895482   -925.48025    2352.9524    1061.9253   -273.29547    651.41496   -330.17971   -187.75236   -229.17507    293.36254 
67400000     67400000    293.14677    107159.33   -252.26768   0.81895482    -986.8523    2289.0795   -144.76087   -83.056678    -528.9855    380.90398    5.5841378    293.83232    293.13911 
67600000     67600000    295.79001    107159.33   -1284.4086   0.81895482   -870.56042    2434.9097   -1012.6646   -1686.2544   -1154.3069   -178.22577    236.98043   -149.29575    295.78117 
67800000     67800000    290.69577    107159.33   -181.25372   0.81895482   -863.00462    2385.5371    265.15215   -299.67497   -509.23834   -407.55788     61.01739    -357.6725    290.68761 
68000000     68000000    294.16775    107159.33    415.84217   0.81895482   -966.62456    2320.7167    1088.2464   -375.64578    534.92591    278.10842    475.89412   -114.40273    294.15872 
68200000     68200000    290.08509    107159.33    119.97806   0.81895482   -959.69226    2282.0251    485.79886   -257.00278    131.13811    16.090672    12.888803   -146.37329    290.07685 
68400000     68400000    284.75559    107159.33   -526.91475   0.81895482   -967.98042    2214.1796   -659.45045    -1060.151     138.8572   -23.867693    404.15496    -120.7307    284.74777 
68600000     68600000    289.97274    107159.33    506.15077   0.81895482   -911.96096    2328.5009     493.1863    138.17534    887.09066   -522.64961    262.56848   -247.05171    289.96414 
68800000     68800000    293.07619    107159.33   -16.524323   0.81895482   -1011.3523    2263.7908    456.07989    40.114938   -545.76779   -160.13955    82.944492    2.9877618    293.06771 
69000000     69000000      292.727    107159.33    149.70414   0.81895482    -979.4773    2291.7635    498.70523   -77.905057    28.312247   -79.901415    790.74347   -221.76266    292.71924 
69200000     69200000    291.08388    107159.33    178.36735   0.81895482   -960.41345    2292.4655    582.70886     391.8662     -439.473   -111.94162    459.01491   -950.33116    291.07513 
69400000     69400000    296.96454    107159.33    837.20868   0.81895482   -903.04669    2415.5489    664.89236    872.57174    974.16194    -689.6504   -128.55694   -140.83096    296.95639 
69600000     69600000    296.09562    107159.33   -219.04626   0.81895482   -926.63325    2382.2521    143.41428   -606.83185   -193.72121    324.61299   -71.249561   -130.75699    296.08667 
69800000     69800000    294.19598    107159.33    187.86134   0.81895482   -992.60448    2295.0524    212.88671    570.66624   -219.96894    286.48812   -266.97317    71.742871     294.1868 
70000000     70000000    289.97017    107159.33    828.77332   0.81895482   -936.04916    2304.3839     1343.888    1063.2979    79.134074    306.69597   -93.741482   -672.08129    289.96151 
70200000     70200000     294.6371    107159.33    219.69027   0.81895482   -1062.5717    2230.0147    130.49298    211.07188    317.50595    163.32468    -554.1284   -19.012718    294.62847 
70400000     70400000    288.78028    107159.33    40.741131   0.81895482   -861.62881    2365.5073    422.40017   -308.59381    8.4170263     104.1262     305.9432    586.47607    288.77209 
70600000     70600000    293.54797    107159.33   -550.93355   0.81895482   -901.36449    2379.0507    -157.8799   -546.07693   -948.84383   -351.17381    546.42993   -188.81309    293.53845 
70800000     70800000    300.80147    107159.33    567.18349   0.81895482   -857.20188    2504.2717   -67.793488    1204.8948    564.44916    345.13757   -50.469963    84.372002    300.79256 
71000000     71000000    291.36773    107159.33     111.1781   0.81895482   -855.75506    2400.2959    508.89917   -1215.2668    1039.9019   -204.06809    432.96943    138.75848    291.35873 
71200000     71200000     292.6359    107159.33    549.39614   0.81895482   -881.65536    2388.5675    406.30161   -106.65192    1348.5387     260.6397   -806.70907    72.549197    292.62744 
71400000     71400000    288.72428    107159.33   -41.567619   0.81895482   -930.20915    2296.3011   -401.28493    673.43534   -396.85327    727.38133    178.65298    187.85429     288.7155 
71600000     71600000    292.58669    107159.33   -741.03492   0.81895482   -926.70352    2342.9694   -781.30982   -832.49422    -609.3007   -158.14249    119.74757    107.97527    292.57712 
71800000     71800000    287.57781    107159.33   -12.094612   0.81895482   -975.35898    2238.3394    -33.45131   -72.780894    69.948369    371.14625    121.68644   -218.12563    287.56834 
72000000     72000000    293.91391    107159.33   -826.54188   0.81895482   -824.93904    2459.5656   -449.55425   -782.86169   -1247.2097   -278.28353    104.28792   -169.45084    293.90409 
72200000     72200000    298.94907    107159.33   -311.57197   0.81895482   -894.85721    2445.9157   -261.32262   -509.49524   -163.89804    -48.54075    94.504641   -14.449747    298.93949 
72400000     72400000    286.08464    107159.33    374.96933   0.81895482   -939.55689    2257.4553    487.67741    322.43962    314.79098    52.300188    719.75954    106.96522     286.0759 
72600000     72600000    297.26774    107159.33   -398.73656   0.81895482   -969.29484     2352.689    -230.8713   -538.43631   -426.90208    554.07673    129.69225   -915.61669    297.25817 
72800000     72800000    299.95229    107159.33   -414.23188   0.81895482   -975.53633    2376.4476   -505.69258   -548.71122   -188.29186    4.1421759   -568.39014   -30.459741    299.94315 
73000000     73000000    292.57304    107159.33    250.92142   0.81895482   -936.75491    2332.7655   -103.94587     199.2085    657.50163   -711.27411    687.94344    271.12583    292.56478 
73200000     73200000    289.32163    107159.33    565.17219   0.81895482   -853.14028    2380.0454    489.50464    481.21456    724.79739   -1062.4072    -144.8148    95.780293    289.31215 
73400000     73400000    293.62093    107159.33   -204.24955   0.81895482   -868.85591    2412.3746    321.17006   -443.50064   -490.41808   -182.34979   -521.98216   -695.78539    293.61143 
73600000     73600000    291.91224    107159.33    817.03622   0.81895482   -903.08025    2359.0557    884.31742    413.84234    1152.9489   -121.03652    204.91645    189.55074    291.90288 
73800000     73800000    291.44755    107159.33     91.19073   0.81895482   -921.14921    2335.7937    90.005305    175.81749    7.7493896   -394.23808    -39.94062   -132.17916    291.43877 
74000000     74000000    296.57574    107159.33   -555.59748   0.81895482    -986.3382    2327.9126   -511.81747   -954.52122   -200.45375   -359.39857   -196.79634   -522.43421    296.56784 
74200000     74200000    293.53128    107159.33   -355.10383   0.81895482   -882.97424    2397.2545    30.716069   -294.54714   -801.48041   -325.89408     732.9256     435.1143    293.52092 
74400000     74400000    294.81579    107159.33   -615.63929   0.81895482    -917.1952    2377.3881   -947.66878   -226.79544   -672.45365    194.03777   -473.99235   -152.66968    294.80612 
74600000     74600000    292.02029    107159.33   -483.90072   0.81895482   -900.88448    2362.4589    -1181.096    57.287786    -327.8939   -518.99646    479.07291   -332.70529    292.01074 
74800000     74800000    292.86776    107159.33    166.15028   0.81895482   -856.19333    2416.6206    534.02896    84.919142   -120.49727    147.70731   -16.393028    27.123645    292.85824 
75000000     75000000    289.23472    107159.33   -110.36075   0.81895482   -951.63971    2280.5747   -358.33475    203.34519    -176.0927     400.3563   -244.76572   -4.8118794    289.22456 
75200000     75200000    293.63581    107159.33    340.63063   0.81895482   -979.47577    2301.9211    1197.5168   -77.537425   -98.087482   -323.37925     31.96958   -113.15862    293.62676 
75400000     75400000    295.67525    107159.33   -311.76184   0.81895482   -992.63279     2311.555   -394.02664   -87.296668   -453.96221    1186.1798    248.46546    -525.4609    295.66578 
75600000     75600000    297.18763    107159.33   -416.94384   0.81895482   -915.44157    2405.6471   -660.21233    37.470336   -628.08953    160.40384     311.3353    168.45087    297.17858 
75800000     75800000    297.11869    107159.33    423.05331   0.81895482   -973.80106    2346.5172    457.21549    677.94351    134.00093    553.28891    192.67367   -532.92482    297.10956 
76000000     76000000    292.02744    107159.33     206.5717   0.81895482   -927.01631    2336.4069   -30.161945   -114.90664    764.78368   -45.856389    83.780068   -334.06553     292.0173 
76200000     76200000    292.00363    107159.33    321.39601   0.81895482   -862.57047    2400.5867    751.79852   -73.494575    285.88408   -214.61081   -508.89536    92.625778    291.99353 
[...]
581000000     5.81e+08    289.15767    107159.33   -820.02689   0.81895482   -1778.2874     1453.066   -896.74578   -1062.9165   -500.41837    -22.18458   -306.26936   -75.945741    289.11624 
581200000    5.812e+08     294.8553    107159.33     -586.657   0.81895482    -1758.965    1536.0597    121.64922   -1362.0249   -519.59536    144.70892   -98.924425   -235.31552    294.81349 
581400000    5.814e+08    297.71194    107159.33   -21.243642   0.81895482   -1753.6426    1573.3052    468.71968   -570.46609    38.015484    463.28977   -366.96703   -64.235532    297.67059 
581600000    5.816e+08    295.47026    107159.33   -592.63147   0.81895482    -1774.292    1527.6049   -115.07738    -1028.585   -634.23205   -511.83885    349.15916    72.394812    295.42866 
581800000    5.818e+08    295.26268    107159.33   -509.61984   0.81895482   -1674.0823    1625.4949    66.806052   -481.75475   -1113.9108   -235.49429   -81.449632    375.87181    295.22143 
582000000     5.82e+08    293.94388    107159.33    336.15202   0.81895482   -1738.0026     1546.837    671.37427    37.374154    299.70764    376.02416   -355.60554   -576.28943    293.90133 
582200000    5.822e+08    296.40819    107159.33   -1273.6025   0.81895482   -1700.3889    1611.9895   -1565.1029   -715.39591   -1540.3087   -490.46863    423.60887    126.62054    296.36608 
582400000    5.824e+08    296.14082    107159.33   -87.576756   0.81895482    -1720.877    1588.5135    57.068838    15.107526   -334.90663    654.26311   -272.90905   -191.98149    296.09855 
582600000    5.826e+08    294.90005    107159.33   -445.88777   0.81895482   -1674.9444    1620.5804   -323.88762    256.18367   -1269.9594   -191.10868    115.80718   -265.44727    294.85767 
582800000    5.828e+08    287.05283    107159.33   -360.06796   0.81895482   -1718.9656    1488.8661    983.78862   -615.45507   -1448.5374    34.310796    64.680665    283.64151    287.01167 
583000000     5.83e+08    297.84714    107159.33    108.75016   0.81895482    -1684.238    1644.2207    258.47957   -22.860965    90.631884   -150.97647    63.589907    21.245629    297.80438 
583200000    5.832e+08    291.20663    107159.33    245.80876   0.81895482   -1774.0936     1480.157    1053.3051   -401.84506    85.966247    -285.2397   -30.044831   -299.33075    291.16506 
583400000    5.834e+08    295.24031    107159.33   -475.54359   0.81895482   -1790.8799    1508.4474    497.02109   -769.11634   -1154.5355   -94.548203   -5.1082541    128.25051    295.19861 
583600000    5.836e+08    290.01091    107159.33    16.482914   0.81895482   -1732.9584      1507.93    512.65153   -410.40545    -52.79734    86.941448     113.9398   -235.67601    289.97041 
583800000    5.838e+08    299.16953    107159.33     -611.438   0.81895482   -1698.8041    1644.4325    562.67826   -1735.4596    -661.5327   -332.14328    213.26063   -462.21506    299.12742 
584000000     5.84e+08    295.59563    107159.33   -98.140575   0.81895482   -1703.3804    1599.9175    966.70557   -891.80163   -369.32566   -263.82932    702.81812    48.647064    295.55347 
584200000    5.842e+08    293.02725    107159.33    369.11023   0.81895482   -1702.2478    1572.3483    291.93514      349.547    465.84854    214.04492     364.9838   -593.36437     292.9853 
584400000    5.844e+08    297.21555    107159.33   -373.57409   0.81895482   -1689.9251    1631.4757    154.94022   -1099.0276   -176.63492    -600.3255   -268.59817    287.09286    297.17355 
584600000    5.846e+08    298.33159    107159.33    387.20622   0.81895482   -1737.0352    1596.8373    1213.5559   -66.437282    14.500057   -226.01992    -775.4852   -170.94808    298.28903 
584800000    5.848e+08    295.22465    107159.33   -167.26556   0.81895482   -1674.0263    1625.1259    1202.1588   -841.26717   -862.68832    100.29159   -177.75982   -784.82282    295.18208 
585000000     5.85e+08    287.53909    107159.33    13.023759   0.81895482   -1711.2378    1502.0279   -296.09993    176.11196    159.05924   -20.807511    -85.98031    33.849465    287.49632 
585200000    5.852e+08    289.80219    107159.33   -808.15752   0.81895482   -1682.5824    1555.9736    519.01417   -1025.4026   -1918.0842   -336.54194    -165.0053    207.49683    289.75988 
585400000    5.854e+08    294.01795    107159.33   -596.21648   0.81895482   -1705.0586    1580.6087   -547.33366   -1105.6446   -135.67119    16.913715    41.633437    296.86556    293.97551 
585600000    5.856e+08    293.49448    107159.33   -469.77346   0.81895482    -1700.706    1579.1115    321.96503   -608.80195   -1122.4835    207.45758    355.61618   -441.43846    293.45145 
585800000    5.858e+08    295.54794    107159.33   -1328.8281   0.81895482   -1714.2652    1588.4998   -683.25666    -2001.009   -1302.2187    -142.8962     255.3524    113.25309    295.50469 
586000000     5.86e+08    290.93554    107159.33   -987.75012   0.81895482   -1665.0719    1586.1493   -595.11914   -1086.2238   -1281.9074   -391.92443    125.98782   -467.29766    290.89412 
586200000    5.862e+08    294.81543    107159.33   -900.38224   0.81895482   -1694.2213    1600.3579   -462.84707   -1260.6359   -977.66371   -100.35532    64.275137    -169.9124    294.77264 
586400000    5.864e+08    292.22433    107159.33   -1334.6707   0.81895482    -1690.968    1574.6556   -452.53339   -1572.0182   -1979.4605    95.054004   -299.44202    260.50419     292.1828 
586600000    5.866e+08    293.63289    107159.33   -753.10234   0.81895482   -1734.1094    1547.2548    344.12273   -1469.5683   -1133.8615   -277.32765   -241.75217   -408.54275    293.59052 
586800000    5.868e+08    292.10957    107159.33   -175.26723   0.81895482   -1784.2347    1480.1064    600.81551   -805.50042   -321.11679    417.35508    179.99542   -351.09382    292.06746 
587000000     5.87e+08    293.00333    107159.33   -937.55321   0.81895482   -1686.5125    1587.8163   -325.00112   -954.23277   -1533.4257   -118.82347    258.43186   -227.24765    292.96044 
587200000    5.872e+08    292.53293    107159.33    57.409718   0.81895482   -1663.3834    1605.6887    658.47324    54.286906   -540.53099   -290.03599   -981.01725   -457.17104    292.49033 
587400000    5.874e+08     288.5108    107159.33   -214.98695   0.81895482   -1723.4561    1500.6685   -40.952032   -336.93126   -267.07756   -116.65386    303.96685    94.422862    288.46962 
587600000    5.876e+08    290.68129    107159.33   -918.57151   0.81895482   -1712.3128    1536.0672   -286.85779   -1088.2049   -1380.6518    19.437975    99.331074    -390.8315    290.63861 
587800000    5.878e+08    290.21471    107159.33   -362.31246   0.81895482   -1685.2272    1557.9388    286.08992   -865.40506   -507.62224   -32.659642    131.79027   -710.56418    290.17208 
588000000     5.88e+08    298.11073    107159.33   -360.07946   0.81895482    -1705.552    1625.8523     21.42694   -443.16095   -658.50438   -100.53371   -401.14291    -651.8631    298.06798 
588200000    5.882e+08    295.55756    107159.33   -225.15627   0.81895482   -1655.1021    1647.7705    493.38665   -175.42214   -993.43331    565.38785   -75.512962   -83.002386    295.51529 
588400000    5.884e+08    288.56388    107159.33    193.41741   0.81895482   -1620.4166    1604.3012    1091.2561   -405.45409   -105.54978    55.579167    148.08396   -262.44688    288.52168 
588600000    5.886e+08    295.11968    107159.33   -913.55294   0.81895482   -1656.3481    1641.6311   -733.94802   -272.69225   -1734.0186   -439.16696   -67.284258   -149.18239     295.0779 
588800000    5.888e+08    288.08066    107159.33    -390.3292   0.81895482   -1635.1539    1584.1639   -61.875853   -386.93888   -722.17287   -219.72542    74.137778    809.49603    288.03851 
589000000     5.89e+08    301.23134    107159.33   -17.672933   0.81895482   -1679.8649    1686.4124     509.3608   -517.63079   -44.748807   -153.01415   -51.084742   -238.92187    301.18924 
589200000    5.892e+08    294.40133    107159.33    -251.5429   0.81895482   -1677.2334    1612.7182    682.57113   -981.45997   -455.73986    367.10862    -488.3937   -415.64949    294.35872 
589400000    5.894e+08    290.63567    107159.33   -87.103329   0.81895482   -1729.8697    1518.0005    612.44558   -878.07405    4.3184848    278.04087    159.39122    59.578943    290.59408 
589600000    5.896e+08    289.57302    107159.33    53.015762   0.81895482   -1673.9934    1562.0015    578.50211   -360.22605   -59.228776   -167.03123     184.1932    145.53279    289.53091 
589800000    5.898e+08    294.80685    107159.33   -432.09926   0.81895482    -1787.827    1506.6564    144.32835   -1059.7462    -380.8799    475.41328   -169.15457    299.75124     294.7652 
590000000      5.9e+08    294.59255    107159.33   -283.37298   0.81895482   -1684.3017    1607.7868    268.55158   -910.99308   -207.67745   -185.98877   -753.46953   -77.058365    294.55066 
590200000    5.902e+08    295.50431    107159.33   -315.09252   0.81895482   -1721.7691    1580.5083    270.32794   -450.13425   -765.47123   -388.35152   -222.98485   -408.62212    295.46172 
590400000    5.904e+08    292.06551    107159.33    488.59215   0.81895482     -1678.76    1585.0887    188.53674    480.36913    796.87058    313.13131   -390.72285   -1091.0714     292.0232 
590600000    5.906e+08    289.98115    107159.33   -652.54824   0.81895482   -1737.9408     1502.615   -186.30958    -708.8633   -1062.4718    5.7567621   -789.06942    45.179035    289.93879 
590800000    5.908e+08    291.48981    107159.33    270.41203   0.81895482   -1723.9153    1533.4999    1320.4763    639.92051   -1149.1607    297.27723   -108.29282    377.65568    291.44762 
591000000     5.91e+08    291.15083    107159.33   -609.88777   0.81895482   -1660.1192    1593.5078   -576.12233   -734.76023   -518.78076    10.638009    49.955674   -206.73263    291.10788 
591200000    5.912e+08    291.01275    107159.33   -190.76498   0.81895482   -1770.4194    1481.6647   -17.133142   -257.50771    -297.6541   -616.42121    205.92059    269.22033    290.97106 
591400000    5.914e+08    290.99686    107159.33   -314.14673   0.81895482   -1737.4409    1514.4656     202.6207   -433.31838   -711.74252   -66.337631   -198.48902   -49.821452    290.95515 
591600000    5.916e+08    291.20271    107159.33   -334.66096   0.81895482   -1713.8978     1540.309   -515.86808   -283.65712   -204.45768   -364.21885    110.42098   -66.089634    291.16076 
591800000    5.918e+08    289.65005    107159.33   -81.912872   0.81895482   -1648.2242    1588.6316    348.57392   -132.10809   -462.20445    189.49205    199.30305   -276.03654    289.60816 
592000000     5.92e+08    293.89718    107159.33   -103.08852   0.81895482   -1703.8015    1580.5161    819.77603   -719.57789   -409.46368    164.12642     143.1329   -574.32054    293.85455 
592200000    5.922e+08    287.60017    107159.33   -213.77355   0.81895482   -1663.7572    1550.1911    585.10064   -1253.0905    26.669218   -128.73011    237.51856   -7.0269739    287.55812 
592400000    5.924e+08    296.44303    107159.33   -49.368561   0.81895482    -1734.298    1578.4697    18.981485   -665.14517      498.058    168.62723   -57.472401    53.784055    296.40055 
592600000    5.926e+08    291.84703    107159.33    600.87394   0.81895482   -1746.4816    1514.9257    1250.7639    270.20035     281.6576   -46.133878     73.73463   -59.632658    291.80437 
592800000    5.928e+08     294.0316    107159.33   -272.07431   0.81895482   -1776.9884    1508.8315    825.75551   -772.39603   -869.58243   -427.50652    -198.6306    222.58009    293.98895 
593000000     5.93e+08    292.35444    107159.33   -845.17112   0.81895482   -1683.0288    1584.0487   -171.10606    -1486.238   -878.16932   -346.15407   -6.1582909    -104.3484     292.3123 
593200000    5.932e+08    292.54992    107159.33   -588.15666   0.81895482   -1709.5616    1559.7004   -338.12202   -1261.7698   -164.57811    88.788299    -95.94604    219.77635    292.50729 
593400000    5.934e+08    296.91345    107159.33   -457.93615   0.81895482   -1721.1194    1596.9053    632.33228   -1092.1139   -914.02687    400.61332   -313.29995    436.65932    296.87105 
593600000    5.936e+08    295.95898    107159.33    47.143751   0.81895482   -1686.5124     1620.846    733.02889   -193.05303   -398.54461   -73.882287   -14.766905    505.83405    295.91649 
593800000    5.938e+08    293.35051    107159.33   -531.27388   0.81895482   -1711.2781    1566.9306   -397.54199   -511.29017   -684.98949   -608.97196   -41.133057    172.11977    293.30861 
594000000     5.94e+08    287.06496    107159.33    139.58459   0.81895482   -1724.7522     1483.215    379.81497   -85.312482    124.25129    102.52689    110.06527    41.717547    287.02377 
594200000    5.942e+08    288.27901    107159.33    -586.4377   0.81895482   -1730.5877    1490.9467    27.655864   -1048.1038   -738.86512    272.56515   -691.47311   -462.18195    288.23673 
594400000    5.944e+08    295.72671    107159.33   -169.50409   0.81895482   -1687.6187    1617.1441    838.79477   -335.82855   -1011.4785    381.35065   -86.960596   -35.560285    295.68403 
594600000    5.946e+08    295.14846    107159.33   -1043.0075   0.81895482   -1726.3475    1571.9534    560.97795   -1895.0917   -1794.9088    123.59907   -284.14393    3.4230913    295.10562 
594800000    5.948e+08    291.63685    107159.33   -30.926924   0.81895482   -1756.3291    1502.7293    989.53239   -942.54814   -139.76502    7.0474109   -136.12937    -34.63323    291.59519 
595000000     5.95e+08    296.35374    107159.33    -852.4447   0.81895482   -1729.1439     1582.626   -109.46248   -904.22359    -1543.648   -595.66961      265.051   -125.28669    296.31042 
595200000    5.952e+08    292.80967    107159.33  -0.27971088   0.81895482   -1655.3202    1616.8446    1384.4957   -832.21878   -553.11608   -358.55702   -410.63573   -367.33875    292.76752 
595400000    5.954e+08    295.19111    107159.33   -597.98381   0.81895482   -1748.0557    1550.7218    147.21362   -561.69418   -1379.4709    197.61184   -252.40731    26.271286    295.14988 
595600000    5.956e+08    286.74118    107159.33   -1222.1431   0.81895482   -1751.3832    1452.9658   -1150.0176    -1650.325   -866.08684   -253.07721    -623.6953   -139.82536    286.69919 
595800000    5.958e+08    292.66785    107159.33   -380.48573   0.81895482   -1693.9643    1576.6156    334.87578   -621.69032   -854.64266   -211.66224   -198.15998    847.69202    292.62531 
596000000     5.96e+08    292.49212    107159.33   -603.20063   0.81895482   -1728.8799    1539.7362   -99.285598   -564.55475   -1145.7616    105.56709   -614.95073    598.17241    292.44982 
596200000    5.962e+08    297.44909    107159.33    41.850309   0.81895482    -1717.346    1606.6645    350.62403   -393.79054    168.71744   -168.66024   -245.18672   -517.46097    297.40677 
596400000    5.964e+08    290.90922    107159.33   -792.26223   0.81895482   -1732.9289    1517.9982   -1044.0681   -1078.3028   -254.41578    49.443635    119.52117    212.51821    290.86762 
596600000    5.966e+08    291.36221    107159.33   -868.76696   0.81895482   -1786.3367    1469.6525   -71.740757   -945.56842   -1588.9917   -142.55132   -599.68932   -368.50207    291.32066 
596800000    5.968e+08    290.92852    107159.33   -378.91108   0.81895482   -1705.6305    1545.5123    381.69238    -782.3697   -736.05591   -208.79614   -609.30384    234.41539    290.88658 
597000000     5.97e+08    291.58815    107159.33    113.77766   0.81895482   -1767.7137    1490.8004    984.53563    -418.0987   -225.10396    482.68461    158.57282   -233.44667    291.54557 
597200000    5.972e+08    293.79859    107159.33   -300.76262   0.81895482   -1754.3204    1528.8956   -280.06653   -63.371792   -558.84952    -92.81541   -168.48296   -361.54885    293.75679 
597400000    5.974e+08    295.10245    107159.33   -526.22197   0.81895482    -1730.783    1567.0036   -150.38937   -1209.2525   -219.02406    -761.6583   -928.80678    111.89027    295.05987 
597600000    5.976e+08     285.8044    107159.33   -740.22633   0.81895482   -1707.7874     1486.093   -292.62383   -1611.4718   -316.58334   -309.40068    86.272106   -370.84193     285.7621 
597800000    5.978e+08    286.24299    107159.33    188.63331   0.81895482   -1779.9174    1418.8643    1465.3671   -293.84581   -605.62134    -397.8374    123.50729   -115.94075    286.20149 
598000000     5.98e+08    285.68204    107159.33   -606.92709   0.81895482   -1734.7532    1457.7599    67.330543   -895.04676   -993.06503    232.15494    502.16823    319.86841    285.64094 
598200000    5.982e+08    294.17649    107159.33   -251.53485   0.81895482   -1744.6031    1542.8359    1205.5479   -730.32236   -1229.8301   -85.548995    17.884904    231.51169    294.13376 
598400000    5.984e+08    292.64785    107159.33   -476.07289   0.81895482   -1750.7467    1519.6097    592.69089   -1142.1601   -878.74948    344.97992   -18.679617   -45.974607    292.60614 
598600000    5.986e+08    301.18878    107159.33   -360.95093   0.81895482   -1694.2805    1671.5213   -48.009662   -601.15978   -433.68336   -49.400297     326.5965    9.9819272    301.14639 
598800000    5.988e+08    295.57336    107159.33   -393.44083   0.81895482   -1727.4061    1575.6431    123.50796    -897.1014   -406.72903   -898.84825    154.28201    14.501847    295.53021 
599000000     5.99e+08    291.26969    107159.33   -384.83714   0.81895482   -1764.9575    1489.9979    681.56618   -1248.8872   -587.19038    64.177992    439.83987   -686.74815    291.22705 
599200000    5.992e+08    296.92083    107159.33   -581.31865   0.81895482   -1679.9948    1638.1123   -165.43319    -188.8055   -1389.7173   -633.62622   -115.69898   -284.40717     296.8784 
599400000    5.994e+08     292.5791    107159.33   -186.97703   0.81895482   -1726.6621     1542.926     173.8433   -629.60887   -105.16554   -127.61327    101.22272    -181.5231     292.5371 
599600000    5.996e+08    296.82477    107159.33    355.98655   0.81895482   -1767.3681    1549.6656    1441.1189   -122.92016   -250.23908   -58.406111    -459.3725   -312.10825    296.78181 
599800000    5.998e+08    293.89283    107159.33   -515.54051   0.81895482   -1696.5007    1587.7684    66.695744   -287.58862   -1325.7286   -126.96077   -208.90053    154.17677    293.85082 
600000000        6e+08    295.61079    107159.33   -649.44083   0.81895482   -1618.9786    1684.4888    140.29299   -1600.4021   -488.21339   -388.14244     33.15248    230.48634    295.56747 
Loop time of 33551.1 on 192 procs for 120000000 steps with 3750 atoms

Performance: 309.022 ns/day, 0.078 hours/ns, 3576.638 timesteps/s
99.8% CPU use with 192 MPI tasks x 1 OpenMP threads

MPI task timing breakdown:
Section |  min time  |  avg time  |  max time  |%varavg| %total
---------------------------------------------------------------
Pair    | 4196.9     | 4566.8     | 5045.7     | 300.0 | 13.61
Bond    | 864.72     | 898        | 937.77     |  56.1 |  2.68
Neigh   | 3059.2     | 3218.9     | 3305.7     | 105.6 |  9.59
Comm    | 17140      | 17735      | 18426      | 227.6 | 52.86
Output  | 44.36      | 44.927     | 44.931     |   0.6 |  0.13
Modify  | 4746.1     | 5369       | 5952.3     | 401.8 | 16.00
Other   |            | 1719       |            |       |  5.12

Nlocal:    19.5312 ave 27 max 11 min
Histogram: 1 6 9 33 24 51 31 17 17 3
Nghost:    841.792 ave 880 max 804 min
Histogram: 3 5 19 32 32 50 30 13 4 4
Neighs:    1494.86 ave 2146 max 829 min
Histogram: 2 4 18 32 40 41 24 19 10 2

Total # of neighbors = 287013
Ave neighs/atom = 76.5368
Ave special neighs/atom = 6.26667
Neighbor list builds = 13183164
Dangerous builds = 0
write_restart   restart_files/shear.sql.*

unfix 		shear1
unfix 		shear2
unfix 		ssave
unfix 		pressave
unfix 		virialave
unfix 		ktensorave

#shell   		sh cleanlog.sh
#shell   		sh post.processing.sh ${exptsrate} 0
Total wall time: 54:25:21
