LAMMPS (10 Feb 2015)
Read molecule SQL:
  30 atoms with 4 types
  29 bonds with 1 types
  34 angles with 1 types
  31 dihedrals with 2 types
  6 impropers with 1 types
Reading restart file ...
  restart file = 10 Feb 2015, LAMMPS = 10 Feb 2015
  triclinic box = (111.252 111.252 111.252) to (158.748 158.748 158.748) with tilt (1.42109e-14 0 0)
  3 by 4 by 4 MPI processor grid
  3750 atoms
  3625 bonds
  4250 angles
  3875 dihedrals
  750 impropers
250 atoms in group endatoms
Resetting global state of Fix shear1 Style nvt/sllod from restart file info
Neighbor list info ...
  1 neighbor list requests
  update every 1 steps, delay 0 steps, check yes
  master list distance cutoff = 10.3
Setting up run ...
Memory usage per processor = 5.70116 Mbytes
Step dummytim Temp Volume Press Density PotEng TotEng Pxx Pyy Pzz Pxy Pyz Pxz myT molPE1 molPE2 molPE3 molPE4 molPE5 molPE6 
3200000000      3.2e+09    294.90498       107143    78.377526   0.81907956   -843.75673    2451.8232    616.52695   -558.92261    177.52824    -316.1939   -739.98234   -499.80837    294.91035   -4292.6944    1060.6213    1151.2759    1128.7587     108.2818            0 
3200100000   3.2001e+09    289.65295       107143   -327.28492   0.81907956    -897.1525    2339.7357   -649.42524   -291.76746   -40.662047   -337.01576   -81.231016    122.78581    289.65847   -4309.6426    1082.4201    1108.7871     1115.364    105.91899            0 
3200200000   3.2002e+09    291.36924       107143   -712.20888   0.81907956   -973.44451    2282.6233   -862.11137    -992.0458   -282.46947    29.513992    270.28781   -221.40012    291.37456   -4319.2956    1053.5178    1111.5821    1077.6551    103.09603            0 
3200300000   3.2003e+09    301.76655       107143   -371.41008   0.81907956   -970.73872    2401.5197    14.383132   -763.16232   -365.45107   -354.08422    257.40222     20.46867    301.77201   -4313.3309    1032.7943     1140.406    1063.0698    106.32201            0 
3200400000   3.2004e+09    300.17006       107143    764.68169   0.81907956   -960.22848     2394.189    161.15583    1298.0357    834.85357   -19.522147   -312.90655   -278.90084    300.17579   -4301.4317     1070.905    1095.1279    1064.4819    110.68843            0 
3200500000   3.2005e+09    295.83449       107143    451.31523   0.81907956   -909.41802    2396.5492     1016.096      252.118     85.73174    300.59588   -70.844531    350.90962    295.83989   -4326.6308    1080.0121    1152.4653    1077.9517    106.78373            0 
3200600000   3.2006e+09    286.07391       107143   -501.60543   0.81907956   -924.12258    2272.7696   -695.72241    339.14463   -1148.2385   -6.4618744    3.4433918    406.79899    286.07956   -4314.4908    1038.9429    1169.6287    1068.4803    113.31627            0 
3200700000   3.2007e+09    290.21856       107143    346.05118   0.81907956   -922.56883    2320.6401    291.00022   -213.01772    960.17104    6.0466034   -242.52919   -907.91592     290.2239   -4291.2759    1057.1069    1117.1689    1083.9863    110.44502            0 
3200800000   3.2008e+09    288.11071       107143    175.34259   0.81907956   -954.80912    2264.8445   -98.470675   -524.65094    1149.1494    366.61869     400.9732    388.11714    288.11602   -4270.6629    1006.0041    1143.6039    1064.9827    101.26313            0 
3200900000   3.2009e+09    293.51855       107143   -419.03099   0.81907956   -878.72586    2401.3606   -239.92888    -742.3418   -274.82229   -111.65282   -276.36196    276.08656    293.52394    -4269.147    1031.0265    1178.1897    1064.1372    117.06767            0 
3201000000    3.201e+09     290.5313       107143   -510.81892   0.81907956    -1023.641    2223.0628    45.424592   -150.62795   -1427.2534   -130.21242   -290.83513   -75.446847     290.5369   -4315.8646     1059.979    1097.0243    1028.9529    106.26731            0 
3201100000   3.2011e+09    290.93702       107143    504.57831   0.81907956   -1033.2718    2217.9659    319.56352    1588.4321   -394.26064    49.978261   -628.33311   -99.995896    290.94218   -4312.1878    1025.6305     1123.635    1029.3721    100.27835            0 
3201200000   3.2012e+09    297.38756       107143    572.77265   0.81907956   -881.44656    2441.8763    254.13759      669.102    795.07836    387.20623   -189.49379   -333.07075     297.3932   -4295.9481    1078.2118    1136.1707    1091.1469    108.97221            0 
3201300000   3.2013e+09    289.17399       107143   -76.369841   0.81907956   -946.34231    2285.1935    304.25382   -177.00012   -356.36323    17.944008   -382.95858     284.3636     289.1795   -4284.7465    1073.2511    1105.7846    1061.4745    97.894015            0 
3201400000   3.2014e+09    292.83657       107143   -284.06579   0.81907956   -1025.4559    2247.0094    72.496842   -455.97797   -468.71624   -264.81583    13.306093    53.780968    292.84176   -4325.1413    1061.1128    1118.3794    1011.8171    108.37611            0 
3201500000   3.2015e+09    290.70111       107143   -686.17107   0.81907956    -1002.509    2246.0925   -913.98723    -376.5153   -768.01067   -525.17478    121.39365   -616.46056    290.70622   -4294.3434    1026.6396    1136.6777    1012.7217    115.79546            0 
3201600000   3.2016e+09     297.5803       107143    480.33357   0.81907956   -949.83637    2375.6404    610.58443   -291.00824    1121.4245   -322.37109   -882.33561   -30.258234    297.58612   -4309.1444    1022.2274    1169.6274    1050.0986     117.3546            0 
3201700000   3.2017e+09      293.506       107143   -373.96005   0.81907956   -1014.2509    2265.6954    321.24732     68.02891   -1511.1564   -18.039729   -163.57869    359.23387     293.5116   -4318.1486    1057.9125    1126.7173     1003.363    115.90487            0 
3201800000   3.2018e+09    300.73734       107143   -725.58526   0.81907956   -989.82955    2370.9273   -1120.1018   -109.67434   -946.97963   -449.94089   -364.51476    468.74837    300.74284   -4328.7145    1069.1039    1152.4024    1020.0132    97.365434            0 
3201900000   3.2019e+09    296.86073       107143    358.47877   0.81907956   -1019.5914    2297.8442    804.69379    202.58401    68.158503    227.36073   -705.47403      400.332    296.86609   -4265.9039    1007.2314    1119.9643    999.47642    119.64044            0 
3202000000    3.202e+09    295.70124       107143   -1363.3817   0.81907956   -1047.7108    2256.7673   -1401.4728   -1444.9474    -1243.725    182.27451   -84.777651   -451.40533    295.70694   -4327.0403    1041.9381    1155.9187    970.55582    110.91684            0 
3202100000   3.2021e+09    294.13374       107143    68.406082   0.81907956   -988.53173    2298.4295    563.00291   -144.53869   -213.24598   -553.71702    419.91324    363.71966    294.13924   -4313.0714     1032.683    1125.0264    1055.7867    111.04357            0 
3202200000   3.2022e+09    290.37213       107143   -1011.5747   0.81907956   -935.83555    2309.0895   -903.01891   -916.89105   -1214.8143   -608.73261   -673.61375   -139.90451    290.37787   -4307.0545    1064.0269    1139.7085    1063.4034    104.08011            0 
3202300000   3.2023e+09    297.87431       107143   -510.67609   0.81907956   -1010.5369    2318.2255   -649.16986   -291.62982   -591.22859    133.29581   -288.33816   -180.14879    297.88001   -4301.2004      1032.27     1134.969    1010.8637    112.56092            0 
3202400000   3.2024e+09    295.57174       107143   -498.18843   0.81907956   -1005.4453    2297.5857   -393.38613   -793.21755    -307.9616    241.51749    614.02285    381.07052    295.57737   -4302.8946    1039.6056     1110.776    1036.1338    110.93392            0 
3202500000   3.2025e+09    290.52917       107143   -545.34909   0.81907956   -1008.4197    2238.2603   -114.64162   -759.16715   -762.23849   -107.98152   -192.43816   -260.89239    290.53477   -4320.5248    1038.3891    1143.1762    1018.3274    112.21235            0 
3202600000   3.2026e+09    292.33136       107143    249.62258   0.81907956   -962.74367    2304.0759    563.04098   -402.04922    587.87596   -64.087406   -66.680172   -532.61962    292.33689    -4284.195     1059.234    1138.8232    1016.7752    106.61895            0 
3202700000   3.2027e+09    288.67804       107143   -159.77954   0.81907956   -965.68536    2260.3082   -666.86629    193.05777   -5.5300921    -439.4583   -110.74242   -474.72982     288.6833    -4303.622    1048.6043    1139.1044    1043.3808    106.84711            0 
3202800000   3.2028e+09    281.03458       107143   -465.83285   0.81907956   -1080.9736    2059.6038   -455.50193   -396.66994   -545.32668   -673.74676   -1108.9634    335.13155    281.03982   -4303.1764    1026.2803    1058.1558    1038.4661    99.300626            0 
3202900000   3.2029e+09    292.52883       107143    266.17132   0.81907956   -948.44714    2320.5792    123.58755    869.43217   -194.50575   -247.39961   -83.538167    504.91504    292.53398   -4303.1563    1016.8501    1168.7409    1063.9566    105.16157            0 
3203000000    3.203e+09    300.60227       107143   -275.95773   0.81907956   -1053.6021    2305.6453   -1119.2754   -152.02692     443.4291   -528.71399    845.21238    555.74597    300.60812   -4315.0512    1058.9417    1086.9564    1011.9414    103.60956            0 
3203100000   3.2031e+09    294.62824       107143   -240.71494   0.81907956   -1003.6503    2288.8371    320.21227   -510.65839   -531.69872   -707.61362     97.97138   -10.770261    294.63394   -4305.1494    1040.9644     1100.317      1053.54    106.67775            0 
3203200000   3.2032e+09    286.66631       107143   -193.26809   0.81907956   -1018.6197    2184.8926   -388.78249   -400.88535    209.86357   -425.79166    285.62438   -370.02999    286.67163   -4331.6013    1063.0436    1125.6353    1010.6006    113.70197            0 
3203300000   3.2033e+09    291.48724       107143   -407.99268   0.81907956    -875.0846    2382.3019   -354.36214   -593.98531   -275.63058   -522.88518   -52.593898    461.99977    291.49315   -4309.7995    1071.7096    1169.2818     1080.763    112.96062            0 
3203400000   3.2034e+09    292.27712       107143   -135.72346   0.81907956   -921.12454    2345.0889    10.976692   -272.08041   -146.06665    68.896072     120.9676    91.881867    292.28236   -4264.7213    1045.6729    1125.9748    1061.2659    110.68319            0 
3203500000   3.2035e+09    294.25139       107143    165.38394   0.81907956   -941.52704    2346.7489    -274.2956    99.271226    671.17619   -103.35233   -613.40455    171.41727    294.25674   -4302.0316    1059.6301    1102.6793    1092.6186    105.57651            0 
3203600000   3.2036e+09    296.83283       107143   -257.32662   0.81907956   -1080.8796    2236.2442   -187.22366   -166.91727   -417.83894   -122.72102    601.72817   -180.66577    296.83815    -4275.719    1016.2602    1074.5177     999.2342    104.82743            0 
3203700000   3.2037e+09    295.24271       107143    158.43864   0.81907956   -907.83265    2391.5215   -47.871608    440.63915    82.548371    469.06953    782.58758    70.249419    295.24822   -4308.3189    1084.1187    1139.3615    1074.5298    102.47632            0 
3203800000   3.2038e+09    292.07113       107143   -88.911111   0.81907956   -1028.8003    2235.1112   -549.12015    -158.6113    440.99812   -200.11212    255.72123   -132.59408    292.07656    -4297.278    1043.6916    1123.0769    995.08273    106.62653            0 
3203900000   3.2039e+09    289.45905       107143   -99.306324   0.81907956   -972.82362    2261.8977   -241.27881   -3.3661828   -53.273981   -152.45042    199.60499    200.09201    289.46424   -4297.3997    1048.7312    1125.6959     1052.668    97.480951            0 
3204000000    3.204e+09    290.93637       107143    369.85362   0.81907956   -990.38184    2260.8487   -402.32491   -45.261197     1557.147   -435.98864    513.13778    546.71359    290.94203   -4315.5235    1047.9703    1126.4808     1037.186    113.50465            0 
3204100000   3.2041e+09    290.69887       107143    377.48946   0.81907956   -961.13237    2287.4441    423.87309    581.53485    127.06044    323.18316    219.47921   -208.56197     290.7043   -4302.0625    1105.5339    1097.2618    1038.5798    99.554558            0 
3204200000   3.2042e+09    297.76985       107143   -277.46307   0.81907956   -985.63057    2341.9644    -13.66042   -779.26439   -39.464389    97.546356    462.07072    401.66405    297.77536   -4306.8266    995.29856    1167.3287    1045.3628    113.20599            0 
3204300000   3.2043e+09    297.66286       107143    433.61197   0.81907956   -955.63213    2370.7672    151.78603    404.05445    744.99544     344.8264    254.38814   -116.56715    297.66873    -4308.954    1077.5215    1138.1714    1025.2473     112.3817            0 
3204400000   3.2044e+09     293.1173       107143    563.80968   0.81907956   -974.64995    2300.9526     293.3631     637.9098    760.15614    133.94139   -30.973404    137.64624    293.12277   -4294.0487    1064.5078    1118.6021    1027.8981    108.39078            0 
3204500000   3.2045e+09    297.89934       107143   -275.12823   0.81907956   -1013.8495    2315.1926    381.81158   -439.47965   -767.71661    280.73749   -102.10813   -11.592214     297.9051   -4307.6491    1011.7884     1109.459    1063.7505    108.80174            0 
3204600000   3.2046e+09     292.9075       107143   -660.12712   0.81907956    -925.8707    2347.3873   -582.97017   -934.27037   -463.14082   -301.03089      146.202   -202.48727    292.91306   -4293.5997    1053.4962    1099.2069    1112.1872    102.83866            0 
3204700000   3.2047e+09    301.90984       107143    645.03649   0.81907956   -1001.8854    2371.9742     246.4547    538.17355    1150.4812    112.77439    331.36043    456.11814    301.91563   -4294.9824    1025.4952    1118.8781    1047.5132    101.21058            0 
3204800000   3.2048e+09    292.00363       107143    283.64054   0.81907956   -982.42553    2280.7316    493.76751    220.84091     136.3132   -136.88116      336.989    -45.62712    292.00886   -4275.1643    1028.6883    1100.0916    1061.2445    102.71434            0 
3204900000   3.2049e+09    289.92277       107143   -211.85557   0.81907956   -969.63011    2270.2733   -711.74687   -47.452089    123.63226   -367.03214   -468.93041    196.50622     289.9279   -4292.2404     1026.322    1126.1915    1057.0295    113.06724            0 
3205000000    3.205e+09    296.45028       107143    359.89504   0.81907956   -960.98519    2351.8635     227.4133    416.02114    436.25069    88.987383   -44.289594   -278.11428    296.45609   -4291.3202    1013.1436    1140.9934    1067.5048    108.69319            0 
3205100000   3.2051e+09    295.13569       107143    -48.62944   0.81907956   -1001.7696    2296.3885    47.292283   -155.06454    -38.11606    364.14297   -503.81281    199.87505    295.14142   -4303.5416    1015.4737    1102.1706    1073.7908    110.33687            0 
3205200000   3.2052e+09    292.71612       107143    -125.5053   0.81907956   -1008.1112    2263.0081    54.359584   -517.34669    86.471206   -164.92817     283.0939    218.82622    292.72156   -4275.4736    1033.7945    1087.1248    1043.3003    103.14292            0 
3205300000   3.2053e+09     296.2956       107143    334.80972   0.81907956   -1004.2138    2306.9064    1196.7613     200.7693   -393.10144   -23.660848   -339.85968    409.10152    296.30109   -4268.6575    1017.5582    1105.4723    1037.1314    104.28185            0 
3205400000   3.2054e+09     297.4521       107143    -615.2414   0.81907956   -969.71875    2354.3254    446.20393   -1076.9071    -1215.021   -410.62299    13.390812   -223.60239    297.45776   -4304.0225    1043.3864    1141.0635    1030.3478    119.50603            0 
3205500000   3.2055e+09    292.31814       107143    309.60646   0.81907956   -947.16581     2319.506    425.92844    184.79012    318.10082    829.35015   -415.56316    296.99388    292.32377   -4290.7778    1050.9798    1132.4413    1053.8998    106.29104            0 
3205600000   3.2056e+09    294.19755       107143    562.59643   0.81907956   -1019.2699    2268.4045    389.62433    661.27317     636.8918   -118.21521   -562.10524    358.62365    294.20294   -4302.0589     1031.801    1118.3452    1030.5197    102.12315            0 
3205700000   3.2057e+09    296.08213       107143   -363.57326   0.81907956   -948.48313    2360.2516    -367.5392    -108.8315   -614.34908    235.85963   -92.504361   -363.64537    296.08745   -4296.3532    1057.9147     1142.678    1040.1699    107.10741            0 
3205800000   3.2058e+09    293.96692       107143   -308.36148   0.81907956   -987.60938    2297.4877   -124.00967    -878.6124     77.53761    291.09065   -218.09322   -380.43134    293.97229   -4311.9116    1046.3496    1094.0284    1072.9855    110.93869            0 
3205900000   3.2059e+09    294.60024       107143   -363.84229   0.81907956   -923.95953    2368.2149   -858.09475   -31.704914   -201.72721    -225.7434    397.19027   -275.20718    294.60576   -4281.3487    1044.4649    1128.0924    1069.7506    115.08126            0 
3206000000    3.206e+09    295.28115       107143   -75.607611   0.81907956   -944.56158    2355.2221   -605.47632    175.20844    203.44504    252.96197    104.09929    175.92565    295.28676   -4290.3003    1042.0138    1116.7548    1077.4538    109.51638            0 
3206100000   3.2061e+09    292.79415       107143   -288.08236   0.81907956   -894.16619    2377.8251   -299.15504    44.486993   -609.57905   -512.44035    481.37534    542.30062    292.79974   -4266.9476     1037.625    1148.7078    1081.2539    105.19466            0 
3206200000   3.2062e+09    293.92202       107143   -411.22775   0.81907956   -961.77162    2322.8236   -388.13283   -529.06009   -316.49033    211.85185     409.2336   -235.72426    293.92743   -4298.7998    1005.4333    1136.2325    1078.3617    117.00064            0 
3206300000   3.2063e+09    295.76545       107143   -296.63523   0.81907956   -985.01821    2320.1775   -434.49911   -881.85697     426.4504   -21.061995    409.79174    118.68884    295.77092   -4300.4367    1038.1562    1105.9144    1069.3301    102.01783            0 
3206400000   3.2064e+09    296.80883       107143    403.78222   0.81907956   -987.64462     2329.211    250.10961    366.47051    594.76654   -567.10977   -57.291029    206.15121    296.81398   -4281.4276    1046.3332    1080.8497    1060.9834    105.61666            0 
3206500000   3.2065e+09    296.47035       107143     -47.3661   0.81907956   -879.40265    2433.6703    -192.4626    -142.4259     192.7902   -723.22408    398.07666    102.82058    296.47603   -4290.5133    1062.0032    1173.7275    1065.2379    110.14208            0 
3206600000   3.2066e+09     295.4077       107143    148.98154   0.81907956   -962.50095    2338.6969   -341.23154    800.44089   -12.264749     41.73756   -584.24095    25.670154    295.41324   -4286.1373    1017.1596    1153.0975    1044.8516    108.52764            0 
3206700000   3.2067e+09    295.25045       107143    455.90057   0.81907956   -999.29221    2300.1484   -719.54078    1350.9868    736.25571   -396.21788   -412.92723    -45.79062    295.25609    -4296.237    1044.5386    1138.6074    1004.8467    108.95212            0 
3206800000   3.2068e+09    300.10476       107143   -112.45572   0.81907956   -942.89154    2410.7962    14.934388   -155.48176   -196.81979   -87.070342   -29.368749    344.07354    300.11057   -4289.6157    1028.5202    1134.6783    1078.3255    105.20019            0 
3206900000   3.2069e+09    291.43276       107143     745.2964   0.81907956   -924.45177    2332.3259    1180.4717    672.32861    383.08889   -608.67238    645.74771    496.43173    291.43832   -4282.0992    1076.6754     1134.878    1043.0761    103.01793            0 
3207000000    3.207e+09    296.41584       107143    299.32438   0.81907956   -1011.5366    2300.9273   -493.34978    345.71368    1045.6092    329.97286   -448.31396    218.92723    296.42102    -4310.793    1072.0456     1130.675    995.61392    100.92181            0 
3207100000   3.2071e+09    290.70456       107143    269.39554   0.81907956   -957.49734    2291.1426    868.95834    42.984135   -103.75585    260.09188   -100.15138   -514.57707    290.70997   -4258.7731    986.18275    1143.2952    1063.7454    108.05241            0 
3207200000   3.2072e+09    296.03738       107143    604.52049   0.81907956   -943.16721    2365.0673    729.67788    681.13347    402.75013    -377.2525    321.12058   -178.72564    296.04288   -4293.5267    1055.5253     1124.408    1052.8085    117.61777            0 
3207300000   3.2073e+09    292.00864       107143   -98.554754   0.81907956   -981.84401    2281.3692    36.572803    403.30642   -735.54348    166.84476     242.8338    166.57043    292.01434   -4289.1784    1062.4493    1098.0835     1046.834    99.967568            0 
3207400000   3.2074e+09    296.05165       107143   -54.505904   0.81907956   -972.76305    2335.6309     5.703977   -389.69945    220.47776    167.75318   -252.06915    219.56016    296.05761   -4287.8509    1043.2788    1121.6012    1043.7224    106.48534            0 
3207500000   3.2075e+09    295.32724       107143   -446.71103   0.81907956   -1010.0153    2290.2834   -250.64457   -402.04865   -687.43987   -265.00238    120.56953   -35.756127    295.33278   -4297.7319    994.50427    1145.7831    1037.2761     110.1531            0 
3207600000   3.2076e+09    294.08926       107143      185.453   0.81907956   -948.24122     2338.223    195.84931    499.40271   -138.89302   -94.574621    486.63217    58.966007    294.09498   -4297.6276    1056.7205    1116.3745    1064.8509    111.44047            0 
3207700000   3.2077e+09    292.13215       107143    -580.6004   0.81907956   -898.77883    2365.8146   -160.12778   -437.03885   -1144.6346    218.35088   -107.83056   -350.98299    292.13777   -4289.8965    1066.3713    1129.6722    1079.8754    115.19886            0 
3207800000   3.2078e+09    292.75622       107143    264.72766   0.81907956   -973.36504    2298.2024    822.99253    208.36541   -237.17497   -109.16532   -132.73805   -197.89418    292.76193   -4294.0358    1058.9962    1125.8863    1030.7131    105.07517            0 
3207900000   3.2079e+09    291.25531       107143   -278.67467   0.81907956   -1016.3579    2238.4368   -672.14533   -91.771123    -72.10756      665.833    -72.59784    463.53773    291.26048   -4311.2687    1056.0586    1079.6634    1047.9519    111.23701            0 
3208000000    3.208e+09    297.60143       107143   -99.299444   0.81907956   -982.65027    2343.0626    191.55729   -615.57334    126.11772    172.81576    475.24843   -662.71175    297.60684   -4295.7788     1028.526    1123.8411    1055.1438    105.61767            0 
3208100000   3.2081e+09    296.06266       107143   -236.26507   0.81907956   -1002.3622    2306.1549   -500.39957    681.57028   -889.96593   -785.57186   -676.79475    315.73136    296.06819   -4306.8505    1053.2513    1085.0119    1064.0124    102.21262            0 
3208200000   3.2082e+09    297.09727       107143   -66.665319   0.81907956   -997.86245    2322.2165   -69.628642   -91.330501   -39.036814    18.502541    136.04903   -502.90667    297.10261   -4305.1691      1043.04    1092.8779    1071.7892    99.599519            0 
3208300000   3.2083e+09    299.84588       107143     413.4785   0.81907956   -1013.9908    2336.8039    78.566011    719.74591    442.12357   -485.31907   -57.841846    451.32831    299.85129   -4297.6223    1024.3368    1132.7872    1007.2741    119.23349            0 
3208400000   3.2084e+09    296.52141       107143    614.11953   0.81907956   -917.22557    2396.4181   -47.927904    1144.0343    746.25224    11.182419    22.760776   -601.29342    296.52697   -4297.7779    1044.3958    1154.3353    1065.4397     116.3815            0 
3208500000   3.2085e+09    295.19513       107143   -1010.6664   0.81907956    -1015.609    2283.2133   -1151.9897   -799.28798   -1080.7215    51.548327    19.275996   -39.424839    295.20078   -4320.0824    1037.7831    1154.4302    995.48948     116.7706            0 
3208600000   3.2086e+09     290.1628       107143   -230.73245   0.81907956   -1001.3879    2241.1979   -585.85237   -454.24335    347.89838   -224.57487   -135.62197   -171.23691    290.16835   -4328.4096     1070.037    1103.8982    1055.4928    97.593767            0 
3208700000   3.2087e+09    294.01409       107143   -295.64645   0.81907956   -1006.7967    2278.8275    173.43782     -941.829   -118.54817   -860.04295   -284.86529   -10.432912     294.0194   -4333.3378    1029.2694    1109.6412    1083.8287    103.80174            0 
3208800000   3.2088e+09    296.47059       107143    392.29403   0.81907956   -933.06153    2380.0142    197.53965    311.32748    668.01496    250.00957   -517.09447   -36.287051    296.47649   -4268.6881    1040.2177    1121.9745    1062.8168    110.61759            0 
3208900000   3.2089e+09    295.03928       107143    377.86089   0.81907956    -962.8082    2334.2726    970.91245    322.24013   -159.56991    57.238798    878.04722    132.32312    295.04508   -4283.2968    1022.3534    1130.2252    1053.7598    114.15024            0 
3209000000    3.209e+09    297.43148       107143    45.507585   0.81907956    -1030.397    2293.4167     321.2712   -294.35721    109.60876    50.402294    48.044716   -324.88363    297.43724   -4338.5812    1018.9033    1130.0676    1048.4797    110.73359            0 
3209100000   3.2091e+09    289.37914       107143   -207.26635   0.81907956   -911.26529    2322.5631   -8.4428991   -165.39379   -447.96235    17.984986    687.07237    390.33275    289.38451   -4305.1779    1110.7882    1107.6746    1073.5583    101.89152            0 
3209200000   3.2092e+09    285.96189       107143    178.50843   0.81907956   -1024.8636    2170.7767    1000.9166     69.91949   -535.31077    124.54846    276.09015    684.02901    285.96742   -4312.4025    1048.1842    1113.4108    1016.7782    109.16581            0 
3209300000   3.2093e+09    289.68039       107143    525.10921   0.81907956   -950.52666    2286.6681    222.78957    191.93709     1160.601     473.6792    478.86702    -519.8841    289.68574   -4317.6808    1094.1084    1172.0683    996.80316    104.17429            0 
3209400000   3.2094e+09    291.65258       107143   -201.83017   0.81907956   -1051.6259    2207.6083    689.32546   -765.28691   -529.52906    858.84325    594.63007    90.358965    291.65805    -4337.745    1020.2771    1140.8006    1009.8969    115.14441            0 
3209500000   3.2095e+09     297.3355       107143   -220.21216   0.81907956   -1043.9722    2278.7689    435.24592   -766.86886   -329.01354   -257.11025    -147.8986    454.03464     297.3409   -4322.5325    1031.6445    1156.7377    974.48389    115.69416            0 
3209600000   3.2096e+09    290.54626       107143    188.44822   0.81907956   -1049.2171    2197.6539     491.5201     53.05604    20.768524   -126.43934   -758.58386     473.0262    290.55168   -4297.9133     1030.874    1078.5982    1039.8355    99.388536            0 
3209700000   3.2097e+09    293.32642       107143   -314.05458   0.81907956   -914.54995    2363.3895   -439.64896   -390.88913   -111.62565   -66.138263   -346.75009   -361.47202    293.33189    -4283.709    1093.1106    1138.2971    1033.9944      103.757            0 
3209800000   3.2098e+09    304.14865       107143   -400.85044   0.81907956   -970.99618    2427.8823    -357.4005    -611.9489   -233.20191    293.27145   -284.18165   -246.82152    304.15449   -4279.0014    1056.4583    1133.6852     1014.433    103.42877            0 
3209900000   3.2099e+09    298.56505       107143   -999.62957   0.81907956   -1064.8568    2271.6246   -417.68534   -1270.1204    -1311.083    292.05115   -505.66233    282.53166    298.57083   -4313.8249     1047.984    1079.9357    1025.6525    95.395892            0 
3210000000     3.21e+09    285.18268       107143    693.97148   0.81907956   -1004.8242    2182.1085    101.76533    1340.9557    639.19342    622.17694    605.54453   -171.53181    285.18831   -4306.0505     995.2595    1142.0791    1059.2696     104.6181            0 
3210100000   3.2101e+09    295.85916       107143   -914.34806   0.81907956   -948.49765    2357.7453   -262.24103   -627.17904   -1853.6241   -138.55563    139.43482    85.610292    295.86435   -4272.4331    1018.2955    1113.6242    1086.2368    105.77888            0 
3210200000   3.2102e+09    291.99977       107143    527.35085   0.81907956   -901.17522    2361.9389    1069.6055   -62.620752    575.06779   -171.71434    191.52281    273.41184    292.00556   -4255.4106     1058.422    1127.1121    1062.8345    105.86679            0 
3210300000   3.2103e+09    286.83056       107143   -210.24387   0.81907956   -980.14001    2225.2078   -211.07683   -527.52166    107.86687    39.981284    558.39702   -242.73012    286.83599   -4291.3012    995.97852    1108.9737    1099.6058    106.60321            0 
3210400000   3.2104e+09    295.03452       107143   -431.73217   0.81907956   -979.79703    2317.2306   -874.67081   -318.89277   -101.63294    -56.52356   -64.134591    61.029307    295.04023   -4280.4314    1040.8385    1104.3513    1052.4481    102.99646            0 
3210500000   3.2105e+09    287.38658       107143    247.71133   0.81907956   -946.76507    2264.7963    115.83507    686.12288   -58.823943    382.48612   -355.19743   -671.75372    287.39186   -4274.0139    1011.0245    1131.7094    1067.7855    116.72947            0 
3210600000   3.2106e+09     295.1583       107143    45.508578   0.81907956   -909.61929    2388.7915   -135.45738    350.22305   -78.239937   -177.11325    427.75867    254.47725     295.1637   -4263.1785    1041.6546    1132.7011    1072.3785      106.825            0 
3210700000   3.2107e+09    298.85566       107143    708.39473   0.81907956   -877.01483    2462.7142    1204.1188    696.44173    224.62366   -585.52293    139.79255    792.95347    298.86135   -4266.5951    1048.8605    1137.3098    1098.7421    104.66795            0 
3210800000   3.2108e+09    293.94135       107143    496.74586   0.81907956   -1019.1566    2265.6547    374.08666    1231.4818   -115.33087   -75.407638   -254.00072    287.55292    293.94699   -4302.4302    1030.9365    1104.8634    1036.9635    110.51016            0 
3210900000   3.2109e+09    290.76327       107143    228.36485   0.81907956   -1045.2594    2204.0366    340.60453   -90.169679     434.6597    -346.8624   -621.06774    258.73449    290.76885   -4289.7253    999.10872    1090.5687    1046.9673    107.82116            0 
3211000000    3.211e+09    296.19082       107143   -91.657046   0.81907956   -1011.9371    2298.0122   -276.77563   -219.30372    221.10821   -642.50254   -302.78446    375.42905    296.19621   -4308.8708    1018.3908    1087.8387    1086.7227    103.98161            0 
3211100000   3.2111e+09    290.48277       107143   -124.18388   0.81907956   -971.35406    2274.8074     209.3886      -581.47  -0.47024708    31.997001    1008.1458    358.07231    290.48824   -4286.7083    1042.3395    1142.9314    1027.1976    102.88581            0 
3211200000   3.2112e+09     291.1235       107143   -301.65104   0.81907956   -862.42928    2390.8924   -342.58477   -152.34613   -410.02223    286.69041    -233.4972   -388.78339    291.12918   -4276.8572    1105.8635     1106.848    1089.6598    112.05658            0 
3211300000   3.2113e+09    292.15384       107143   -635.57638   0.81907956    -974.4218     2290.414    170.99824   -1091.4749   -986.25249    -402.0077    214.88223   -112.30062    292.15949   -4306.3843     1077.574    1099.6389    1046.1654    108.58419            0 
3211400000   3.2114e+09    295.21901       107143    281.95748   0.81907956   -985.36424     2313.725     438.8053   -139.52766    546.59479   -149.26648    158.29948    266.01227    295.22469   -4269.9487     1050.856    1084.8583     1044.043    104.82703            0 
3211500000   3.2115e+09    299.53657       107143    -410.1145   0.81907956   -952.75539    2394.5828    118.35624    -327.6193   -1021.0804    -61.99838    282.06637    109.16225    299.54192   -4292.2183    1079.4391    1101.1879     1053.994    104.84198            0 
3211600000   3.2116e+09    296.83281       107143    300.53725   0.81907956   -959.97327    2357.1503    497.49401    1134.9604   -730.84267   -868.66972   -539.23168   -353.01805    296.83848   -4287.5911    1056.3833    1144.8885    1019.3156    107.03044            0 
3211700000   3.2117e+09    295.88112       107143    482.06957   0.81907956   -914.25932     2392.229    1152.5664   -131.79006    425.43239   -350.01315   -451.61268    157.97581    295.88686   -4300.2095    1033.0072    1186.1166    1047.4531     119.3733            0 
3211800000   3.2118e+09    284.26471       107143    610.17983   0.81907956   -1012.2363     2164.438    592.88017    818.68214    418.97718     320.1422   -292.17541    731.63566    284.27024   -4300.0609    1049.9305    1110.9044    1022.3864    104.60334            0 
3211900000   3.2119e+09    292.84981       107143    652.56676   0.81907956   -1027.9426    2244.6707    357.55891    1107.8601    492.28124   -612.51923     309.5596   -247.40556    292.85553   -4304.6185    1033.0273    1125.5682    1011.8136    106.26685            0 
3212000000    3.212e+09    291.71401       107143    134.14333   0.81907956   -1027.6001    2232.3205    377.81657    559.72738   -535.11396   -542.28985   -334.12655   -8.4155024    291.71955   -4302.5439     1030.653    1108.5645    1030.4603     105.2659            0 
3212100000   3.2121e+09    291.42212       107143    756.57232   0.81907956   -901.00513    2355.6536    415.22563      1353.21    501.28139   -334.34158    89.726206   -1143.0091     291.4274   -4286.0167    1074.2504    1137.1641    1062.4124     111.1847            0 
3212200000   3.2122e+09    292.42949       107143    93.799886   0.81907956    -1030.508    2237.4082    73.890929   -59.157507    266.66624   -327.69747    161.63913   -97.368063    292.43495   -4326.9085    1013.9963    1117.6208    1055.2309     109.5525            0 
3212300000   3.2123e+09    290.21479       107143    448.26304   0.81907956    -988.5907    2254.5761    1121.4662    41.349314    181.97364   -377.71947     377.3647    709.98743    290.22036   -4283.6199    1027.9476    1101.6579    1056.3239     109.0998            0 
3212400000   3.2124e+09    289.23128       107143   -23.797861   0.81907956   -1033.6903    2198.4858    22.143577   -708.37977    614.84261   -519.56078   -7.3672251   -184.86138    289.23655   -4303.3853    996.49805    1143.4665    1024.8352    104.89536            0 
3212500000   3.2125e+09    294.85646       107143   -2.8860748   0.81907956   -865.39578    2429.6419    1450.9695   -918.33993    -541.2878   -590.93741    226.86889    217.07156    294.86222   -4269.1395    1081.9847    1112.2442    1095.5235    113.99133            0 
3212600000   3.2126e+09    290.49425       107143    121.38151   0.81907956    -983.9839    2262.3059   -642.46888    520.56276    486.05065   -245.92176   -247.46054   -71.929096    290.49966   -4307.0206     1025.932    1118.6438    1078.1856    100.27519            0 
3212700000   3.2127e+09    299.42433       107143    423.58589   0.81907956    -1004.159    2341.9249    185.53533   -95.361767    1180.5841     530.3507   -272.65139    99.737259    299.42971    -4321.852    1051.2415    1083.7381    1079.9794    102.73391            0 
3212800000   3.2128e+09    287.63874       107143   -453.17067   0.81907956   -963.94713    2250.4321   -441.25059   -249.86752    -668.3939    -118.4617     352.9471    274.70036     287.6442   -4298.1506    1046.9784    1125.6031    1056.9797    104.64233            0 
3212900000   3.2129e+09    292.74405       107143   -610.01836   0.81907956   -984.82327    2286.6082    317.11711   -328.37794   -1818.7942    111.25542   -398.02976    210.95631    292.74933   -4304.3254     1038.154    1114.0386    1050.9883    116.32125            0 
3213000000    3.213e+09    296.38568       107143    108.41401   0.81907956   -943.19066    2368.9361    475.39716    426.34227   -576.49741    359.74612   -111.29111   -102.95961    296.39128   -4316.7624    1052.3251     1160.011    1042.6775    118.55813            0 
3213100000   3.2131e+09    292.00839       107143   -462.83461   0.81907956    -1006.604    2256.6063    221.01311   -565.98611   -1043.5308    248.85085    -287.9668   -263.92704    292.01386   -4313.4408    1036.0304    1129.8093    1035.9137    105.08347            0 
3213200000   3.2132e+09    296.59269       107143    800.24347   0.81907956   -927.45842    2386.9817    649.34575    707.85935    1043.5253   -294.03649    474.26623    355.41138    296.59821   -4310.2837    1049.0957    1137.3711    1085.2079    111.15063            0 
3213300000   3.2133e+09    287.24707       107143    48.057632   0.81907956   -936.55199    2273.4503    8.3096619   -465.77236     601.6356    116.94685    -295.8846   -310.49268    287.25257    -4284.117    1054.7086    1130.4348    1052.9001     109.5216            0 
3213400000   3.2134e+09    294.16053       107143   -103.28678   0.81907956   -1015.7395    2271.5211   -33.494945   -517.29263    240.92725     388.6651    278.03811   -556.06489    294.16604   -4312.4454    1015.0307    1097.1535     1086.148    98.373593            0 
3213500000   3.2135e+09    290.92813       107143     68.05646   0.81907956   -953.30614    2297.8323    498.24293    88.517363   -382.59091    167.61769    238.62823    468.23933    290.93392   -4293.7957    1083.2624    1124.4599    1023.1337    109.63355            0 
3213600000   3.2136e+09    289.21337       107143     163.2774   0.81907956   -1043.4765    2188.4993    936.39366    -504.0643    57.502829    446.90882    -483.0978    259.58829    289.21872   -4293.8584     1039.482    1104.2033    995.13168    111.56483            0 
3213700000   3.2137e+09    290.87517       107143    132.39937   0.81907956   -1011.9018    2238.6447    46.358666    446.64747   -95.808038   -188.99279    9.9670164    17.177066    290.88109   -4317.2373    1034.2336    1137.3781    1024.2801    109.44365            0 
3213800000   3.2138e+09    295.28742       107143    223.60176   0.81907956   -969.37699    2330.4768    195.77072     76.14705    398.88751    748.39766   -339.56632    103.19665    295.29273   -4288.7023    987.19879     1123.863    1095.9202    112.34331            0 
3213900000   3.2139e+09    287.99132       107143    267.53697   0.81907956   -1034.2044     2184.115    331.22811    609.92921   -138.54642    170.77807    83.184908    558.65736    287.99697   -4302.3976    1058.4407    1054.4313    1042.1582    113.16306            0 
3214000000    3.214e+09    295.02264       107143    474.63095   0.81907956    -934.6635    2362.2312    609.65991    1404.8525   -590.61951   -105.95101   -47.737813    538.20265    295.02824   -4288.3002     1007.444    1127.2146    1098.3128    120.66527            0 
3214100000   3.2141e+09    298.78723       107143   -958.48991   0.81907956   -959.13733     2379.827   -1571.1309   -672.01646   -632.32238    557.71416   -302.30951    150.79738    298.79335   -4318.6247    1047.9791    1143.5826    1062.0444    105.88126            0 
3214200000   3.2142e+09    294.95078       107143    222.93634   0.81907956    -963.3737    2332.7181   -236.76105    878.18476    27.385322    65.743852   -355.77598     76.11671     294.9562   -4294.3489    1052.3757    1134.4143    1039.4434    104.74193            0 
3214300000   3.2143e+09     294.1062       107143   -706.78548   0.81907956   -937.77908    2348.8744   -904.08221   -345.20263   -871.07159   -37.982126   -12.859585   -459.34052    294.11178    -4303.138    1100.1649    1124.4843    1037.5471    103.16262            0 
3214400000   3.2144e+09    293.49226       107143   -230.62675   0.81907956   -970.53632    2309.2563   -673.46832   -6.4104732    -12.00145    251.71659   -234.20486   -561.65169    293.49763   -4298.8211    1055.7095     1120.194    1049.6756    102.70567            0 
3214500000   3.2145e+09    298.26938       107143    589.35114   0.81907956   -948.15744    2385.0198    657.35966    1174.9722   -64.278422   -56.668471    709.19041    265.82979    298.27465   -4291.1925    1087.1192    1122.1979    1028.9742    104.74377            0 
3214600000   3.2146e+09    289.98795       107143   -653.84534   0.81907956   -1035.5381    2205.0937   -546.97879   -586.20008   -828.35714   -441.99953    263.57446    241.93631    289.99335   -4301.6274    1024.2493    1110.2734    1028.7355    102.83097            0 
3214700000   3.2147e+09     293.9521       107143   -201.66959   0.81907956   -924.14796    2360.7835    340.96069   -554.18779   -391.78167    57.046903    0.1983023    200.08572    293.95787   -4293.2284    1104.1327    1117.0931    1035.9548    111.89989            0 
3214800000   3.2148e+09     297.2779       107143   -336.81338   0.81907956   -916.00964    2406.0878   -25.079953    156.19519   -1141.5554   -189.85239   -528.50317    199.79821    297.28386   -4296.3143    1073.2643    1152.6836    1044.7369    109.61987            0 
3214900000   3.2149e+09    285.83134       107143   -162.44752   0.81907956    -980.2575     2213.924   -872.76819   -524.11564    909.54126    154.18543   -275.49632   -383.30749    285.83703   -4280.4065    1036.2068    1138.7985    1012.0648    113.07886            0 
3215000000    3.215e+09    295.77081       107143   -1428.4242   0.81907956   -954.05422    2351.2014   -1274.7466   -1696.1442   -1314.3816    -473.7457   -335.85018   -553.35221    295.77625   -4303.2376     1028.907    1132.4695    1067.2718    120.53505            0 
3215100000   3.2151e+09    292.80494       107143    240.50738   0.81907956   -1020.5935    2251.5184   -129.07217    1042.0731   -191.47874     755.9918    113.28703     75.13191    292.81015   -4299.7152    1025.3579    1145.1734    1004.6164      103.974            0 
3215200000   3.2152e+09    286.17703       107143    60.542637   0.81907956   -1012.2498    2185.7949    -659.1856    399.97591    440.83761   -147.56018    147.20854   -335.39056     286.1829   -4282.3377    1004.7129    1135.4067    1021.7481    108.22027            0 
3215300000   3.2153e+09    291.49145       107143   -882.70617   0.81907956   -974.96064    2282.4729   -1036.6965   -748.65851   -862.76353   -179.88969   -238.20901    641.99793      291.497    -4281.992     1012.868    1144.3442    1039.5833    110.23585            0 
3215400000   3.2154e+09       293.86       107143    584.82317   0.81907956   -1075.4761    2208.4261    296.27949   -152.24352    1610.4335   -316.38994   -181.42519     20.52696    293.86535   -4302.8685    1032.2004    1045.2847      1051.05    98.857357            0 
3215500000   3.2155e+09    302.14287       107143    800.44941   0.81907956   -1029.5781    2346.8857    1192.3317    473.75273    735.26383    35.057965   -527.29475    43.796984    302.14861   -4297.6448    1049.2165    1100.2697    1010.8264    107.75409            0 
3215600000   3.2156e+09    291.12952       107143   -941.29572   0.81907956   -1058.8329     2194.556   -1546.6763   -596.55492   -680.65591   -690.32116   -55.822254    513.40243    291.13511   -4345.8496    1020.7416     1105.224    1060.3826    100.66846            0 
3215700000   3.2157e+09    295.96788       107143   -436.76278   0.81907956   -1014.7233    2292.7345   -888.80238   -326.41552   -95.070436    77.370794   -522.65365    59.981055    295.97385   -4275.4974    1019.9717    1078.8669    1053.5136    108.42181            0 
3215800000   3.2158e+09    298.33682       107143    285.90147   0.81907956   -1049.1233    2284.8076    715.53008   -183.04958    325.22392    676.75549   -828.94846   -168.51385    298.34261    -4314.211    1029.1232    1098.4983     1031.891    105.57516            0 
3215900000   3.2159e+09    299.28335       107143    369.93189   0.81907956   -909.10791    2435.4005   -261.44138    436.67461    934.56244   -410.38246    112.01771     227.1181    299.28937   -4263.3415     1028.904    1120.9429    1089.3939     114.9927            0 
3216000000    3.216e+09    292.33938       107143   -207.73468   0.81907956   -1008.1226    2258.7866   -263.82881   -928.67503     569.2998     137.7977   -123.92474    464.08761    292.34467   -4310.1437    1055.2348    1111.2985    1023.5777    111.91007            0 
3216100000   3.2161e+09    290.40753       107143   -20.927095   0.81907956   -1050.0346     2195.286   -6.8028382   -794.94945      738.971    -265.8955   -8.3056971   -153.65654    290.41268   -4326.3958    1026.5035    1111.5559    1024.6363    113.66548            0 
3216200000   3.2162e+09    294.81597       107143   -221.62084   0.81907956   -1055.8393    2238.7459   -459.66007   -358.12351    152.92106    -634.5509    58.824295    479.77117    294.82137   -4296.7571    1016.5649    1085.2344    1036.2115    102.90693            0 
3216300000   3.2163e+09    290.12397       107143   -756.80026   0.81907956   -929.24523    2312.9067   -1266.1989   -295.16207   -709.03979    430.44744   -127.39977   -348.35618    290.12951   -4257.4056    1027.4125    1139.6989    1038.6747    122.37428            0 
3216400000   3.2164e+09    284.26357       107143    641.66771   0.81907956   -1076.3015      2100.36    693.10605    994.01868     237.8784   -171.85545    394.82147    89.505971    284.26878   -4296.5655    979.49686    1085.9946    1045.2082    109.56425            0 
3216500000   3.2165e+09    288.12504       107143    124.24571   0.81907956   -1015.6838    2204.1299    577.97814    316.74361   -521.98461   -464.74902   -126.25767    433.78096    288.13077   -4288.1633    1040.5191    1088.7139    1037.7651    105.48127            0 
3216600000   3.2166e+09    292.81557       107143   -121.76311   0.81907956   -1027.4931    2244.7375   -563.76998     247.1364   -48.655758    377.84991    107.87548    476.59957    292.82055   -4323.5634    1057.4342    1099.8908    1029.2032    109.54204            0 
3216700000   3.2167e+09    287.82465       107143   -473.27446   0.81907956   -963.88024    2252.5766   -809.77951    36.363966   -646.40784    181.32371    110.32602    9.6192751    287.83037   -4294.5219    1069.2417    1116.7493    1037.6897    106.96097            0 
3216800000   3.2168e+09      292.543       107143   -901.43627   0.81907956   -1026.5704    2242.6143   -1757.8127   -623.04598   -323.45018    260.02291    112.74729    1.3859405    292.54835   -4302.3784    1032.4564    1101.5568    1035.2013    106.59344            0 
3216900000   3.2169e+09    286.81543       107143   -171.67945   0.81907956   -983.17692    2222.0019    -982.2646    331.64185    135.58441   -125.51917    141.68597   -801.98686    286.82066    -4293.898    1033.8316    1117.8383    1043.8596    115.19163            0 
3217000000    3.217e+09    295.56545       107143    372.41427   0.81907956   -962.19699    2340.7637    786.54363   -114.69033     445.3895   -392.23534   -173.77887   -335.68489    295.57061   -4280.4488    1021.8704    1127.2831    1071.1796    97.918724            0 
3217100000   3.2171e+09    295.69232       107143    134.94298   0.81907956   -1006.1754    2298.2031    926.78212   -360.43057   -161.52261    426.95397    187.42127    313.96752    295.69794   -4287.8189     1027.812    1108.4444    1036.0372       109.35            0 
3217200000   3.2172e+09    293.50335       107143    643.13087   0.81907956   -1001.9823    2277.9343    620.15585    423.66073    885.57603   -400.22986    182.96585   -252.70309    293.50905   -4301.7599    1047.3511    1117.4847    1025.1737    109.76807            0 
3217300000   3.2173e+09      283.601       107143    81.882135   0.81907956   -1026.9782    2142.2791   -419.75662   -17.799806    683.20283    180.18611    276.20804    357.33096     283.6062   -4277.9241    1060.2319    1068.0704    1003.9682    118.67541            0 
3217400000   3.2174e+09     295.6114       107143    595.76775   0.81907956    -975.9929    2327.4813    832.99769     757.0184    197.28716    141.78655   -440.78169   -46.390129    295.61632   -4288.2336     1018.646    1127.0274     1057.467    109.10033            0 
3217500000   3.2175e+09     287.9229       107143    505.74231   0.81907956   -985.67252    2231.8823    352.73763     231.9634    932.52589    81.456197   -665.74378   -108.22315    287.92848   -4287.4217    1026.4638    1111.0823    1060.8496    103.35339            0 
3217600000   3.2176e+09    292.60374       107143     214.2368   0.81907956    -1017.545    2252.3185    273.60824   -60.150553    429.25272   -381.03389   -321.74526   -64.029561    292.60917   -4287.8184    1051.2284    1072.6501    1045.8568    100.53816            0 
3217700000   3.2177e+09    287.17883       107143   -78.180895   0.81907956   -1032.0648     2177.175    382.28197   -333.49672   -283.32793   -152.78031   -209.40724    -612.7376     287.1845   -4288.4998    1020.1956    1111.7018    1020.0586    104.47909            0 
3217800000   3.2178e+09    298.29744       107143   -475.63249   0.81907956   -964.75545    2368.7354   -1178.4579   -896.84149    648.40192    76.470429   -49.642601      95.5724    298.30254   -4319.2263    1051.7904    1124.3961    1063.7164    114.56789            0 
3217900000   3.2179e+09    294.73921       107143    617.34603   0.81907956   -933.68054    2360.0468    809.37115    411.48639    631.18054   -422.73188    64.620295    392.27107    294.74492   -4270.4016    1065.7668    1140.8366    1023.8815    106.23624            0 
3218000000    3.218e+09     299.2276       107143   -116.92118   0.81907956   -1011.1623    2332.7232    107.78848   -611.47288    152.92085   -152.13416    646.53992    81.351067    299.23332   -4304.1599    1027.2682    1136.6469    1020.6794    108.40326            0 
3218100000   3.2181e+09    289.02511       107143   -1412.2455   0.81907956   -989.52428    2240.3478    -1123.069   -765.39105   -2348.2766   -459.48538   -45.109956    222.19785     289.0303   -4312.5138    1094.6944    1117.4795    1009.7039    101.11174            0 
3218200000   3.2182e+09    294.21768       107143    923.30804   0.81907956   -950.47179    2337.4275    1067.6127    930.24886     772.0626   -558.00338    3.5344141   -220.53631    294.22331    -4284.913    1019.4451    1109.5863    1095.8997    109.51011            0 
3218300000   3.2183e+09    291.67585       107143   -66.652171   0.81907956   -981.14993    2278.3442    323.29605   -386.43541   -136.81715    55.718516    178.56189   -502.90155    291.68159   -4321.8078    1075.1184    1113.9678    1039.4001    112.17159            0 
3218400000   3.2184e+09    292.86649       107143   -1003.6525   0.81907956   -1023.5443    2249.2554   -598.03442   -1301.0199   -1111.9032    194.29996   -626.20232    731.73406    292.87225   -4323.6594    1057.2266    1123.4232    1000.0577    119.40763            0 
3218500000   3.2185e+09     288.0042       107143    18.144875   0.81907956   -929.52986    2288.9334   -332.77052    445.94157   -58.736427    520.73033    468.38977   -450.14099    288.00992   -4303.0063    1070.6652    1166.8371    1029.0551    106.91915            0 
3218600000   3.2186e+09    289.53447       107143    381.05513   0.81907956   -976.65829    2258.9059   -283.24738    963.32714    463.08564   -282.30669    -383.2734   -577.90067     289.5404   -4300.0103    996.18492    1152.4733    1060.8666    113.82715            0 
3218700000   3.2187e+09    294.31921       107143   -619.50687   0.81907956   -967.70296     2321.331   -574.82631   -203.53966   -1080.1547   -814.68746   -266.18362     227.7501    294.32473   -4313.1641    1062.9659    1134.1778    1041.5172    106.80027            0 
3218800000   3.2188e+09     301.1673       107143   -235.92944   0.81907956   -885.15331    2480.4084   -191.04806   -446.52317   -70.217096   -755.39991    -638.7478    528.73199     301.1732   -4262.0202     1048.163    1133.7152    1095.1772    99.811441            0 
3218900000   3.2189e+09    298.90008       107143   -164.82078   0.81907956   -950.20329    2390.0221   -370.16879     200.2691   -324.56263    276.19194    362.97603    111.84312    298.90544   -4290.3954    1036.0532    1126.7122    1076.6844    100.74237            0 
3219000000    3.219e+09    296.87298       107143       266.36   0.81907956   -961.46898    2356.1035    709.42077    418.16929   -328.51006    266.62252    89.982386   -35.844521     296.8787   -4291.2508     1073.184    1122.3231    1025.0733    109.20142            0 
3219100000   3.2191e+09     292.5396       107143    32.706409   0.81907956   -997.03622    2272.1105    167.44075    392.48143   -461.80295    -419.8073   -32.902755    72.485791     292.5454   -4276.4719    1013.8201    1141.6687    1008.3342     115.6126            0 
3219200000   3.2192e+09    290.99663       107143    301.19443   0.81907956   -988.67373    2263.2301    428.12719   -428.59749    904.05359   -199.45644   -181.62323    -289.7542    291.00151   -4298.6647    1053.3944    1112.6709    1026.5596    117.36611            0 
3219300000   3.2193e+09    296.61967       107143    395.82194   0.81907956   -938.76427    2375.9774    742.22467    385.24741    59.993729   -550.27479    23.720264    54.640012     296.6249   -4305.1185     1065.734    1161.4382    1032.5197    106.66231            0 
3219400000   3.2194e+09    285.55168       107143    931.07945   0.81907956   -959.30039    2231.7558    575.32318    721.93043    1495.9847   -198.49658    279.15158   -621.84743    285.55711   -4296.1441    1046.4145    1149.6598    1034.1105    106.65893            0 
3219500000   3.2195e+09    293.50578       107143   -243.84677   0.81907956   -1022.6806    2257.2632   -101.71024   -475.50395   -154.32611    516.16693    18.183791   -663.98291    293.51132   -4295.4356    1071.8216    1110.4726    980.32813     110.1327            0 
3219600000   3.2196e+09    296.25625       107143    477.99821   0.81907956    -991.5503    2319.1301     938.8456    152.65571    342.49331    177.26483    219.97655    43.980806    296.26161   -4307.0348    1064.2695    1121.2275    1032.9454    97.042174            0 
3219700000   3.2197e+09    292.40769       107143    425.94388   0.81907956   -986.47606    2281.1965    387.75544    472.77758    417.29861    411.01904   -523.68744   -663.92934    292.41325   -4325.9824    1056.1437    1131.1522    1043.3532    108.85731            0 
3219800000   3.2198e+09    285.27757       107143   -505.12587   0.81907956   -926.35413    2261.6389   -512.15545   -613.71042   -389.51176   -400.06337    136.74997    -887.5968    285.28278   -4302.5009    1057.5803     1144.844    1060.2538    113.46862            0 
3219900000   3.2199e+09    291.59394       107143    110.58636   0.81907956    -945.7972    2312.7817    -211.8623    674.43757    -130.8162    319.00298    533.51643    87.469698    291.59971   -4273.1782    1071.1905    1128.9827    1014.2761    112.93165            0 
3220000000     3.22e+09    289.02441       107143    167.94484   0.81907956   -952.35785    2277.5063     542.4827   -843.68484    805.03665    93.505801    640.13871   -339.82139    289.03031   -4323.1607    1053.4619    1119.9147    1097.4633    99.962935            0 
3220100000   3.2201e+09    290.91725       107143    164.31964   0.81907956   -994.46035    2256.5565    253.52118    398.17948   -158.74173   -554.78658   -66.190713    82.835308    290.92298   -4298.4392    1045.6923    1140.7122      1003.22     114.3544            0 
3220200000   3.2202e+09    287.19455       107143   -62.754798   0.81907956   -978.81468    2230.6008    -197.2159   -335.88538    344.83689    657.94149    528.45454   -144.77157    287.19999   -4304.6656    1031.9836    1146.7474    1035.8576    111.26236            0 
3220300000   3.2203e+09    284.64597       107143     215.1218   0.81907956    -961.6516    2219.2833    14.937682     194.1649    436.26283   -130.45242   -121.74675   -357.39554    284.65158   -4305.8172    1036.5045    1116.8476     1083.202    107.61158            0 
3220400000   3.2204e+09    292.50734       107143   -26.558256   0.81907956   -972.24293    2296.5433    264.40577   -470.52926    126.44872   -52.244663   -157.53391   -287.80962    292.51261   -4299.1354    1081.0971    1114.8492    1018.2537     112.6924            0 
3220500000   3.2205e+09    286.03243       107143   -701.17185   0.81907956   -919.85428    2276.5744   -479.08867   -519.53454   -1104.8923   -93.158515    138.55871   -571.16281    286.03798   -4294.5949     1020.286    1186.5849    1053.6398    114.22995            0 
3220600000   3.2206e+09    296.81633       107143    138.98894   0.81907956   -1081.4921    2235.4473   -170.06748    778.84257   -191.80826   -278.54139   -56.196161    378.50215    296.82195   -4313.2887    1018.1904    1079.7905    1029.4247    104.39085            0 
3220700000   3.2207e+09    293.88918       107143    169.22294   0.81907956   -992.72897    2291.4993   0.56579067    132.69207    374.41096   -437.85892     534.5168   -12.953433    293.89509   -4268.4156    1026.3047    1125.8519    1005.6005    117.92959            0 
3220800000   3.2208e+09    292.11596       107143   -356.08546   0.81907956   -972.64413    2291.7683   -696.72304   -455.44862    83.915285   -332.43557   -183.55566     461.3103    292.12154   -4305.2546    1053.3147    1126.5083    1043.9372    108.85023            0 
3220900000   3.2209e+09    289.21879       107143   -24.619053   0.81907956   -965.51933    2266.5171   -1052.1667    192.98618    785.32339   -252.97173   -205.41796   -288.39652    289.22409   -4301.1961    1032.7156    1151.0836    1041.4559    110.42164            0 
3221000000    3.221e+09    296.46174       107143   -231.23307   0.81907956   -848.50275     2464.474   -55.346558   -313.72724    -324.6254    222.30094   -171.99822   -175.52304    296.46734   -4290.9502    1099.9418    1126.1506    1109.5323    106.82269            0 
3221100000   3.2211e+09    294.91561       107143    145.87962   0.81907956   -941.96453    2353.7342    349.32619   -71.211385    159.52406   -38.528421   -101.37059   -468.42365     294.9211   -4306.5737    1096.3843    1098.5006    1060.1231    109.60129            0 
3221200000   3.2212e+09    293.40971       107143   -10.189493   0.81907956   -1037.5952     2241.275    716.95166   -553.73068   -193.78947   -132.65788    61.889492   -231.96895    293.41546   -4298.3424     1004.259    1117.6923    1032.0519    106.74404            0 
3221300000   3.2213e+09    289.91302       107143   -997.18393   0.81907956   -1049.4044    2190.3901   -1428.3537   -798.81905   -764.37904    -120.0594    473.47092    45.181648    289.91879   -4298.0442    1001.0236    1126.4616    1021.9904    99.164186            0 
3221400000   3.2214e+09    288.95193       107143    34.402877   0.81907956   -943.91724     2285.137   -996.65895    481.75968     618.1079   -296.60033   -341.86065   -341.78136    288.95741   -4254.0543    1015.1136    1131.8895    1051.1333    112.00059            0 
3221500000   3.2215e+09    292.81898       107143    231.53157   0.81907956   -940.10655    2332.1622    391.29861    419.21256   -115.91646    203.22368   -536.67112   -471.10473    292.82444   -4290.9287    1072.8049    1137.2006     1034.486    106.33073            0 
3221600000   3.2216e+09    288.96296       107143     109.5493   0.81907956   -959.02288    2270.1547    424.80561    85.643114   -181.80084   -246.63796   -248.01917   -148.89567    288.96848   -4293.3377    1050.8283    1137.8265     1040.553    105.10704            0 
3221700000   3.2217e+09    294.26334       107143    660.36167   0.81907956   -944.38682    2344.0228    775.31303    948.59864    257.17334    233.66217    118.02481   -411.98156    294.26932   -4289.4453    1086.7477    1097.5469    1051.5422    109.22173            0 
3221800000   3.2218e+09    299.15044       107143    1020.6144   0.81907956   -981.17647    2361.8467    1508.5703    671.66979    881.60317    37.818916   -112.48435     536.6466    299.15609   -4291.0068    1061.6565    1099.9416    1032.1041    116.12817            0 
3221900000   3.2219e+09    295.70761       107143   -390.10561   0.81907956   -956.22012    2348.3293    190.77308   -921.24557   -439.84434    763.28861    180.34628   -233.15146    295.71315   -4295.5917    1066.6611    1119.6701     1036.748    116.29234            0 
3222000000    3.222e+09     287.3281       107143   -127.18198   0.81907956   -1000.4939     2210.414     52.33711   -755.21881    321.33575    -179.2719    352.77857    181.08052    287.33346    -4319.684    1028.5591    1154.7852     1022.791    113.05485            0 
3222100000   3.2221e+09    286.10008       107143    788.66208   0.81907956    -971.0226    2226.1621    418.46254    1154.8772    792.64648   -315.07818   -261.48637    -188.9806    286.10562    -4308.545    1052.9015    1143.3762     1021.927    119.31766            0 
3222200000   3.2222e+09    294.93548       107143   -170.25715   0.81907956   -1038.9729    2256.9479    495.50072   -144.03571   -862.23647   -80.243394    357.43362   -294.19566     294.9411   -4267.4815    1033.1834    1111.6083    979.36456    104.35236            0 
3222300000   3.2223e+09    289.52123       107143   -64.486486   0.81907956    -1061.092    2174.3241   -924.57153    551.53677     179.5753   -464.48825   -573.69668    241.69524    289.52661    -4302.818    1041.7329    1096.7004    996.90315    106.38958            0 
3222400000   3.2224e+09    296.17328       107143    398.12483   0.81907956   -1023.9081    2285.8452     364.9425    688.14622    141.28578    458.05189   -933.46654    311.81791    296.17884   -4304.6914    1040.6314    1112.7487    1025.3644    102.03887            0 
3222500000   3.2225e+09    297.19518       107143    356.20744   0.81907956   -1002.9667    2318.2063    156.18085    886.42097    26.020507    244.84429    171.02775   -449.12486     297.2005   -4273.7042    1017.1109    1168.2958    972.11328    113.21743            0 
3222600000   3.2226e+09    296.85361       107143    159.31412   0.81907956   -1082.6627    2234.6932     442.8772    467.08179   -432.01662   -40.182521   -136.93707    321.61832    296.85866   -4317.5665    993.79694    1096.8604     1047.055    97.191504            0 
3222700000   3.2227e+09    297.72998       107143    55.152793   0.81907956   -920.79279    2406.3567   -261.27307    86.922913    339.80854   -178.43109    -501.0446    555.69919    297.73556   -4247.9395    1056.3116    1130.5894     1030.625    109.62065            0 
3222800000   3.2228e+09    300.86834       107143    297.85111   0.81907956   -999.92008    2362.3007   -9.6644892    267.11025    636.10758   -306.33838    8.9360011    346.08776    300.87404   -4299.5381    1053.5258    1096.4656    1047.1323    102.49433            0 
3222900000   3.2229e+09    295.22213       107143   -189.55415   0.81907956   -891.69348    2407.4307   -716.50415   -222.86514    370.70685    371.71983    359.93206    356.54335    295.22817   -4291.3188    1069.0252    1120.9108    1090.3831    119.30629            0 
3223000000    3.223e+09    292.47243       107143    684.23916   0.81907956   -851.81248    2416.5836    839.90411    425.29166     787.5217    368.22157   -361.47004    461.60697    292.47811     -4281.92    1065.7376     1156.218    1086.2175    121.93447            0 
3223100000   3.2231e+09    291.03786       107143    744.24176   0.81907956   -1090.1845    2162.1802    679.73045    369.76975    1183.2251    71.962841    351.95854   -270.60525    291.04316   -4314.2343    983.16398    1107.1812    1039.2519    94.452706            0 
3223200000   3.2232e+09    286.48695       107143    329.82226   0.81907956   -988.45759    2213.0504    637.39943    187.78875    164.27859    321.80452   -793.68206     376.1643    286.49229   -4311.2641    1067.8415    1142.5122    1008.5417    103.91112            0 
3223300000   3.2233e+09    288.24632       107143    220.06991   0.81907956    -995.1071    2226.0619    122.40036    700.66206   -162.85268    348.25339   -1014.3964     426.1916     288.2518   -4310.1903    1031.1774    1145.9285    1016.8895    121.08779            0 
3223400000   3.2234e+09    293.91134       107143    384.54334   0.81907956    -967.1865    2317.2894   -41.737417    -26.62252      1221.99    265.56817   -358.25551    721.24979    293.91663   -4299.9038     1030.067    1113.6237    1074.8063    114.22028            0 
3223500000   3.2235e+09    300.18683       107143    702.36686   0.81907956   -988.56972    2366.0352     1505.306    50.488801    551.30582   -58.766062   -503.43214    396.98864    300.19203   -4283.1164      1044.17    1148.4128    1001.7616    100.20222            0 
3223600000   3.2236e+09    287.11016       107143    129.31061   0.81907956   -963.91442    2244.5579   -599.68544    395.53031    592.08697   -101.94262    -174.2178    229.28661    287.11522   -4290.3128    1091.8885    1135.0259    982.23049    117.25346            0 
3223700000   3.2237e+09    293.74835       107143    77.796412   0.81907956    -1005.434    2277.2206    481.95899   -324.30322    75.733462   -437.32711    929.13743   -429.40694    293.75369   -4303.0205    1043.6581    1127.7871    1008.7909     117.3505            0 
3223800000   3.2238e+09    292.62163       107143     274.5232   0.81907956   -895.53316    2374.5302    120.28839     310.6879    392.59332   -356.38605   -200.15514    513.83857    292.62724   -4275.9509    1096.9732    1137.7315    1032.3924    113.32067            0 
3223900000   3.2239e+09    296.57239       107143    258.64155   0.81907956    -998.3197    2315.8936    99.532874   -207.38406    883.77583   -173.02144   -141.95926    293.76348      296.578   -4293.7904    1040.8238    1080.1281    1066.4909    108.02796            0 
3224000000    3.224e+09    301.81971       107143     -53.0489   0.81907956    -912.3594    2460.4931    227.21776    -860.8631    474.49864    190.51781   -489.87045     178.3021    301.82532   -4288.5215    1033.2515    1173.9698    1056.0484    112.89246            0 
3224100000   3.2241e+09    289.27935       107143   -20.858811   0.81907956   -883.62143    2349.0917    448.41259   -538.05364    27.064619   -256.66627    318.97522    100.01286    289.28488   -4297.2818    1064.4336    1152.8407     1084.665    111.72113            0 
3224200000   3.2242e+09    287.16957       107143   -500.47066   0.81907956   -956.06501    2253.0712   -967.27201   -535.87159    1.7316154    -382.7402    582.38392   -527.18971     287.1751   -4292.6145    1021.6634    1145.5917    1064.0199    105.27446            0 
3224300000   3.2243e+09    294.67815       107143   -127.39431   0.81907956   -973.90897    2319.1361   -142.61458    7.7729651   -247.34132   -342.14258    83.973674    300.42496    294.68371   -4324.1035    1072.6848    1129.4668    1034.7568    113.28612            0 
3224400000   3.2244e+09    296.37712       107143   -204.54023   0.81907956   -949.46298    2362.5682    10.468421   -189.82478   -434.26433    402.92189    525.15146    1093.9745    296.38309   -4300.4658    1048.1771    1122.1944    1068.8501    111.78112            0 
3224500000   3.2245e+09    292.41564       107143    301.54176   0.81907956   -941.59345     2326.168    44.412807    771.82376    88.388716   -493.78733    108.62742   -220.22772    292.42076   -4283.7517    1009.1789    1161.2144    1064.6108    107.15424            0 
3224600000   3.2246e+09    286.00057       107143   -270.28248   0.81907956   -976.97189    2219.1008   -1100.5172   -287.61091    577.28067   -550.36249   -221.11668    1043.5948    286.00614   -4305.9271    1041.9296    1135.1402    1033.4286    118.45678            0 
3224700000   3.2247e+09    289.44756       107143    -551.4701   0.81907956    -986.5651    2248.0278   -315.35839   -491.94127   -847.11064   -483.43681   -434.44158   -199.98153     289.4527   -4311.0516    1071.7588    1117.3288    1026.2185    109.18029            0 
3224800000   3.2248e+09     294.0355       107143   -258.55732   0.81907956   -1013.8091    2272.0543   -123.14571   -218.81424   -433.71202    436.16416   -10.441526    121.89434    294.04101   -4292.0196    1042.0784    1062.9767    1071.3539    101.80141            0 
3224900000   3.2249e+09    299.30338       107143   -308.41463   0.81907956   -1014.3992     2330.333    124.48076   -301.10168   -748.62297   -385.66675     130.5881   -699.96306     299.3091   -4280.3736    1047.2863    1098.1377    1030.3282    90.222189            0 
3225000000    3.225e+09    291.49443       107143    157.47168   0.81907956   -1053.9239     2203.543    127.27717    193.12462    152.01324    304.25978    277.47736   -13.227281    291.49972   -4300.0025    1007.1909    1099.1494    1038.1806    101.55774            0 
3225100000   3.2251e+09     292.8185       107143    170.55618   0.81907956   -906.85005    2365.4133   -201.10435     138.2726    574.50031    229.29068    758.64387   -111.40228    292.82392   -4284.2357    1080.1816    1128.8966    1065.5079    102.79962            0 
3225200000   3.2252e+09    293.06532       107143   -198.89963   0.81907956   -977.41429    2297.6073    -290.3666   -491.48993    185.15765   -76.506673   -281.80489    378.17178     293.0706   -4294.5508    1061.3195    1133.0263    1018.2362    104.55451            0 
3225300000   3.2253e+09    291.65235       107143    56.557902   0.81907956    -933.1202    2326.1114   -133.91767    657.60571   -354.01433    78.891139    -231.4028    651.15478     291.6582   -4288.9029    1049.7504    1123.1033    1070.3105    112.61844            0 
3225400000   3.2254e+09    293.11274       107143    201.84115   0.81907956   -1018.2501    2257.3014    871.16451   -1057.9557    792.31467    130.58002   -276.21355    208.21907    293.11787   -4316.1568     1061.992    1109.9952    1014.2249    111.69462            0 
3225500000   3.2255e+09    293.79241       107143    353.74003   0.81907956   -962.71895    2320.4279    416.56307    10.601436    634.05559    122.99022   -487.20705    40.606191    293.79781   -4304.8289    1028.5578    1143.7586    1068.5256    101.26791            0 
3225600000   3.2256e+09    297.51078       107143    250.05057   0.81907956   -1061.8707    2262.8293    832.63169   -120.76839    38.288417   -312.26296   -19.965631   -478.46091    297.51641    -4296.131    1008.0145    1118.7382    995.70496    111.80265            0 
3225700000   3.2257e+09    292.40431       107143    556.58162   0.81907956   -980.34056    2287.2942    1057.0862    244.08925    368.56944    158.73721    68.794388    553.87804    292.40956   -4288.5326    1013.6803    1126.7477    1049.5103    118.25371            0 
3225800000   3.2258e+09    292.94822       107143   -20.319309   0.81907956    -975.3316    2298.3814    1126.7756   -606.41067   -581.32285     428.6684    250.46958   -251.23189    292.95369   -4308.8299    1061.2761    1107.2695    1052.1412    112.81141            0 
3225900000   3.2259e+09    294.11268       107143    963.63623   0.81907956   -942.50787    2344.2181    1353.6481    648.30464    888.95593     217.6408   -203.97298   -526.41539    294.11817   -4292.2336    1062.8262    1122.6846    1062.1664    102.04861            0 
3226000000    3.226e+09    296.16955       107143   -627.89802   0.81907956   -947.25522    2362.4564   -393.52372      38.9667    -1529.137    -219.4922   -222.94457   -291.89861    296.17503   -4285.4373    1057.0116    1157.4109    1006.4176    117.34199            0 
3226100000   3.2261e+09    294.41162       107143   -1005.1396   0.81907956    -999.7798    2290.2868   -48.938059   -1494.1762   -1472.3045    562.40856    308.72166    -460.5939    294.41709    -4295.204      1032.05    1070.9492    1088.0322    104.39272            0 
3226200000   3.2262e+09    290.01897       107143   -243.78717   0.81907956   -950.73755    2290.2409    415.20036   -682.63277    -463.9291   -549.24644   -42.040012     288.4823    290.02452   -4305.4571    1046.2218    1125.5662    1073.6422    109.28926            0 
3226300000   3.2263e+09    289.68598       107143    743.63374   0.81907956   -936.82222    2300.4351    891.39544    890.12663    449.37916    -759.5957    16.855688     38.20901    289.69142   -4284.5626     1074.388    1114.1374    1053.7657    105.44939            0 
3226400000   3.2264e+09    292.12858       107143   -46.877906   0.81907956   -975.44768    2289.1058    58.428591    -24.06335   -174.99896   -132.41378     138.2261    660.58737     292.1337    -4292.071    1021.4163    1093.9831    1093.8925    107.33135            0 
3226500000   3.2265e+09     295.0066       107143   -176.70842   0.81907956   -956.38118    2340.3343   -274.51454   -180.82601   -74.784721    445.29729    367.20471    -400.6801    295.01221   -4284.4957    1039.2336    1130.1902    1048.9152    109.77552            0 
3226600000   3.2266e+09    290.09038       107143    657.83984   0.81907956   -900.97113    2340.8054     632.3933    765.21629    575.90992    521.41563    92.891059    867.48871    290.09578   -4285.1073    1088.0077    1136.0191    1048.5467    111.56263            0 
3226700000   3.2267e+09    296.07428       107143   -246.82755   0.81907956   -999.92637    2308.7205   -682.03946    326.08279     -384.526    373.46524    33.160892    243.75685    296.07976   -4331.0934    1044.1783    1154.0876    1029.6771    103.22393            0 
3226800000   3.2268e+09    296.78715       107143    127.26082   0.81907956   -1047.2546    2269.3587    318.60673    120.77576    -57.60003    87.085197    1188.8536   -413.10415    296.79244   -4300.7103    1014.4476    1122.5081     1011.512    104.98808            0 
3226900000   3.2269e+09    300.58177       107143   -30.615375   0.81907956   -978.88241     2380.136    958.38936   -963.44953   -86.785953   -588.76328   -647.76695   -7.6676859    300.58726   -4312.5478    1026.5062    1133.6683    1059.6164    113.87456            0 
3227000000    3.227e+09    293.57467       107143   -197.68165   0.81907956   -990.43316    2290.2805   -351.98843   -474.08463    233.02811    2.1251319   -137.46298    430.94217    293.58005   -4276.5448     1014.904    1092.2372    1071.6525    107.31798            0 
3227100000   3.2271e+09    297.12327       107143   -395.07746   0.81907956   -1010.4681    2309.9013   -412.19979   -152.30864   -620.72394   -781.67137    318.59992    66.599031     297.1288   -4319.2236     1042.966    1094.6802    1061.5059    109.60336            0 
3227200000   3.2272e+09    293.33278       107143   -448.22495   0.81907956    -954.2889    2323.7216   -71.659408   -1064.8108   -208.20466     4.349376   -409.12117    765.73132    293.33791   -4284.9698    1042.0419    1124.7848    1055.0085    108.84563            0 
3227300000   3.2273e+09     294.5465       107143     219.1293   0.81907956   -957.81965    2333.7543    251.70181   -44.205248    449.89134    426.35762    108.30695    95.257096    294.55222    -4270.068    1007.1352    1160.7076    1031.6635    112.74207            0 
3227400000   3.2274e+09    296.14702       107143   -32.038629   0.81907956   -973.67823    2335.7815    364.06936    476.80485    -936.9901   -273.51736   -255.94024    556.14033      296.152   -4290.8008    1039.8084    1091.5685    1080.3714    105.37427            0 
3227500000   3.2275e+09    298.43312       107143    160.33184   0.81907956   -930.69685    2404.3102   -66.202756    41.814075    505.38421     525.5839   -104.95374   -253.25352    298.43884   -4301.6499    1078.4756    1157.7143    1022.6085    112.15461            0 
3227600000   3.2276e+09    288.96937       107143    -366.6989   0.81907956   -1061.3543    2167.8948    -518.1078    510.56014    -1092.549    119.17629    647.36818    -544.9202    288.97455   -4316.5505    1047.4403    1099.2817    999.11207    109.36209            0 
3227700000   3.2277e+09    290.05553       107143   -499.02558   0.81907956   -972.31327    2269.0738   -795.76031    -448.6735   -252.64293   -540.36688    552.19136    270.69469    290.06066   -4294.1859    1063.7323    1114.5376    1039.1099    104.49283            0 
3227800000   3.2278e+09    286.42885       107143     391.4868   0.81907956   -923.84495    2277.0138    928.75901    41.921148    203.78026   -333.80214    566.33891   -662.59021    286.43434     -4297.35    1091.3723    1154.6738    1019.4212    108.03767            0 
3227900000   3.2279e+09    290.76723       107143   -8.0658174   0.81907956   -997.62793    2251.7124    13.621661   -209.98157    172.16246   -87.731933    203.35056    385.76983    290.77298   -4284.5699    1047.3804     1117.119    1011.0605     111.3821            0 
3228000000    3.228e+09    303.96276       107143   -444.18591   0.81907956   -950.52617    2446.2749   -366.28543   -621.26735   -345.00495    198.53603    264.57809    570.39723    303.96844   -4273.0017    1062.9129    1163.3664    996.75944    99.436707            0 
3228100000   3.2281e+09       288.68       107143   -67.347629   0.81907956    -885.5596    2340.4559    384.71042   -325.19152   -261.56179    954.73795    123.68553    92.386945    288.68533   -4293.4022    1106.0669     1143.531    1053.0155    105.22933            0 
3228200000   3.2282e+09    289.86716       107143   -511.28499   0.81907956   -922.27579    2317.0062   -607.20807   -640.02195   -286.62496   -865.03896    65.124432   -577.56364    289.87279   -4253.8305    1037.7097    1112.4681    1069.9183    111.45857            0 
3228300000   3.2283e+09    290.06604       107143    139.87942   0.81907956    -989.2443    2252.2602    118.23559   -112.53749    413.94017   -355.26091   -45.055939    165.95201    290.07187   -4291.6094    1030.1501    1128.2863    1045.0663    98.862412            0 
3228400000   3.2284e+09    293.90357       107143    107.83834   0.81907956   -915.80556    2368.5836    305.92171   -138.28312    155.87644   -548.85577    235.48416   -303.19515    293.90916   -4268.4762    1073.7342    1135.8705    1031.0674    111.99851            0 
3228500000   3.2285e+09     284.4868       107143   -282.12589   0.81907956   -966.82305    2212.3332    230.01284   -903.27684   -173.11368    551.64008    707.53107   -0.5186975    284.49235   -4304.0579    1004.6104    1146.2261    1082.5299    103.86845            0 
3228600000   3.2286e+09    294.22471       107143    3.2148807   0.81907956   -1072.8798     2215.098   -783.16122     703.6654     89.14047    231.23111    171.71702   -663.98489    294.22998   -4305.4538     1027.344    1086.7356    1010.8389    107.65557            0 
3228700000   3.2287e+09    288.85034       107143      222.237   0.81907956   -993.96879    2233.9501   -113.12021    449.57971    330.25149     1027.982   -84.347865    394.49216    288.85601   -4308.4511    1017.6812    1132.4876    1051.5971    112.71648            0 
3228800000   3.2288e+09    293.67667       107143   -290.82006   0.81907956   -933.08082    2348.7727    22.838092   -1137.6627     242.3644    158.94351   -32.790997   -359.26142    293.68249   -4289.3575    1073.9972     1162.914    1008.6259    110.73961            0 
3228900000   3.2289e+09    291.86711       107143    1561.8011   0.81907956   -1033.7467    2227.8848    788.06379    1985.9493    1911.3902    27.305106   -363.56015    216.74699    291.87272   -4266.5518     990.4999    1082.1721    1051.6903    108.44269            0 
[...]
4194200000   4.1942e+09     295.0849       107143   -872.66897   0.81907956   -1022.2293    2275.3613   -1244.8644   -363.30796   -1009.8346   -164.90136   -593.61362   -440.87775    295.09173   -4284.1569    1043.5376    1104.5818     1008.554    105.25412            0 
4194300000   4.1943e+09    297.28973       107143    603.23041   0.81907956   -1035.8844    2286.3452    403.95381    861.63163    544.10579    -23.46222    265.84308   -147.67189    297.29647   -4268.9519    1025.5476    1108.8659    987.44803     111.2059            0 
4194400000   4.1944e+09    294.50048       107143   -605.28482   0.81907956   -1015.6099    2275.4497    16.657603   -908.63515   -923.87693   -93.836507    176.62474    1551.6997    294.50732   -4298.2936    990.19447    1112.6824    1072.2548    107.55194            0 
4194500000   4.1945e+09    297.81691       107143    479.18278   0.81907956   -1076.9121    2251.2089    386.91787    978.46166    72.168807    187.06712    448.08381   -291.92578    297.82383   -4290.0913    1040.5869    1093.9071    979.86407    98.821278            0 
4194600000   4.1946e+09    297.31337       107143    36.767832   0.81907956   -990.40708    2332.0867   -388.45594    173.65407    325.10537   -307.97623   -721.63025    412.16446     297.3204   -4292.5964    1042.7204    1144.2776    1008.6679    106.52343            0 
4194700000   4.1947e+09    297.00297       107143   -597.70896   0.81907956   -983.27954    2335.7456    20.183003   -1571.1926   -242.11726    342.61098    109.04787    391.04614    297.01022   -4317.8741    1052.1402    1154.2544    1015.8762    112.32379            0 
4194800000   4.1948e+09    291.72558       107143      308.661   0.81907956   -1043.5928    2216.4571    150.41001   -29.803321    805.37631   -514.07734    181.31972    739.54543    291.73262   -4298.1606     1018.441    1090.6726    1041.7322    103.72199            0 
4194900000   4.1949e+09    290.18016       107143   -26.585303   0.81907956   -1117.0317    2125.7482    104.81989   -159.49351    -25.08229   -461.00179     460.3165     773.3151    290.18656   -4286.4042    1009.1666    1080.4851     973.4958    106.22507            0 
4195000000    4.195e+09     287.9092       107143   -305.89629   0.81907956   -1017.9655    2199.4362   -631.93316   -123.02761   -162.72812   -455.47037    140.00982    291.61554    287.91601   -4281.6343    962.32036    1131.9525    1056.5457    112.85023            0 
4195100000   4.1951e+09    299.37943       107143    587.68343   0.81907956   -993.95176    2351.6304     402.5019    531.06431    829.48406    337.54506   -178.41555    344.83999    299.38657   -4310.4199    1022.8914    1102.7779    1085.2583    105.54047            0 
4195200000   4.1952e+09    292.86241       107143    253.24749   0.81907956   -1063.1112    2209.6429    132.80497   -94.495244    721.43273   -448.65821     291.8912    178.03179     292.8691   -4335.3701     1017.727    1086.9095    1058.5655    109.05691            0 
4195300000   4.1953e+09    300.45338       107143    211.21424   0.81907956   -1016.9233    2340.6603    132.63215     324.5569    176.45368    490.27249    393.51442    335.08836    300.46025   -4319.8826      1015.64    1136.5131    1046.5765    104.22965            0 
4195400000   4.1954e+09    299.93884       107143   -709.48287   0.81907956   -1049.8244    2302.0092   -1062.2956   -378.71743   -687.43558    139.82379    162.22868   -134.37022     299.9458    -4301.795    1006.6774    1102.8296    1033.4611    109.00255            0 
4195500000   4.1955e+09    291.98687       107143    -33.95738   0.81907956   -987.08559    2275.8843    245.40597   -587.18935    239.91124    182.71157    339.61672    530.13194    291.99356   -4307.7104    1044.9895    1117.5137    1046.4533    111.66831            0 
4195600000   4.1956e+09     295.4118       107143    -230.1092   0.81907956    -1036.707    2264.5366    461.16028   -1104.5968    -46.89112   -359.25156   -281.25988    326.98212    295.41849   -4282.9946    980.04943    1110.0325    1053.2789    102.92674            0 
4195700000   4.1957e+09    296.19007       107143   -273.49925   0.81907956   -992.82073    2317.1201   -144.08576   -229.29597   -447.11601    -325.0633     100.8717    662.14848    296.19701   -4296.6639    1028.0486    1109.5141    1057.3841    108.89629            0 
4195800000   4.1958e+09    286.56368       107143   -276.89288   0.81907956   -972.30191    2230.0635    319.69917   -1816.4359     666.0581    130.36726   -41.436719   -534.16194    286.57059    -4292.102    1064.8162    1125.2829    1016.2086    113.49235            0 
4195900000   4.1959e+09     292.6259       107143   -16.844497   0.81907956   -1035.5697    2234.5413    483.27562   -535.36737    1.5582592    -330.1277    -407.3601   -256.99136    292.63232   -4295.4008    1043.8688    1094.7667    1017.3873    103.80839            0 
4196000000    4.196e+09    293.56236       107143   -423.46438   0.81907956   -1153.8722    2126.7039   -212.46545   -1144.3292    86.401489   -101.10072    149.09859    89.350282    293.56912   -4325.6032    973.80117    1085.5731     1011.005    101.35165            0 
4196100000   4.1961e+09    294.24248       107143    235.92061   0.81907956   -1084.4469    2203.7295   -139.21131    949.07462   -102.10147   -107.20184   -242.71589   -436.62143    294.24888   -4291.8299    998.13816    1064.4122    1039.6308    105.20184            0 
4196200000   4.1962e+09    303.37593       107143    822.50864   0.81907956   -950.57107    2439.6722    593.30888    955.63891    918.57815   -209.81946   -154.34784    551.98842    303.38311   -4262.9611    1016.2443    1076.1685    1111.3301    108.64708            0 
4196300000   4.1963e+09    294.41009       107143    50.872395   0.81907956   -1048.6148    2241.4347    17.097604    11.334376     124.1852   -839.31079    243.68701   -207.94463    294.41653   -4325.8671    1024.8801    1099.0664    1051.1553    102.15054            0 
4196400000   4.1964e+09     293.4389       107143   -55.169959   0.81907956   -1050.4419    2228.7545    242.61533   -230.09405   -178.03116   -345.17708   -221.23091    414.21742    293.44592   -4307.8298    1007.4549    1118.6183    1026.3437    104.97101            0 
4196500000   4.1965e+09    294.72222       107143   -365.02138   0.81907956   -1055.9973    2237.5402    -438.8737    387.46669   -1043.6571    293.40523    151.59003    143.30914    294.72889    -4313.544    1009.5174    1118.7361    1015.5544    113.73872            0 
4196600000   4.1966e+09    292.09357       107143   -330.19119   0.81907956   -1063.7208    2200.4414   -462.79377   -404.60551   -123.17429    70.071892   -52.957754    333.88614    292.10068   -4281.8592     1045.817    1101.0372    970.66372    100.62046            0 
4196700000   4.1967e+09      292.028       107143    344.79389   0.81907956   -1026.7093    2236.7201    30.216463    1207.0589   -202.89371    -559.9334    600.49293   -581.23192    292.03494   -4314.2808    1047.8977    1122.1762    1001.6634    115.83415            0 
4196800000   4.1968e+09    295.09016       107143    -408.2715   0.81907956   -1006.6723     2290.977    629.86962   -1046.4574   -808.22674   -250.75486   -78.636523   -239.21266    295.09686   -4321.0667    1027.4731    1089.8428    1087.7001    109.37856            0 
4196900000   4.1969e+09    296.06243       107143    -188.6401   0.81907956    -992.4494    2316.0651    334.61309   -466.86191   -433.67149   -50.367204   -516.14232   -227.84676    296.06965    -4319.739    1054.5694    1138.5937    1030.8945    103.23208            0 
4197000000    4.197e+09    294.29815       107143    795.98317   0.81907956   -1055.3802    2233.4184     447.5392    463.19458    1477.2157      493.755   -606.67624    426.86594    294.30529   -4303.0504    1000.9817    1069.6059    1080.7866    96.295863            0 
4197100000   4.1971e+09    302.09567       107143   -367.05982   0.81907956   -1017.0724    2358.8639    21.869558   -678.90858   -444.14043   -273.24734    -211.0515    229.42842    302.10266   -4317.6168    1023.1252    1142.9744    1028.4625    105.98233            0 
4197200000   4.1972e+09    297.14902       107143   -159.81174   0.81907956   -989.45296    2331.2042   -456.61266    123.06554    -145.8881   -48.096125    251.01888   -49.243566    297.15613   -4275.9673    1045.6836     1131.935    1007.7393    101.15643            0 
4197300000   4.1973e+09    297.50223       107143    613.52208   0.81907956   -935.72865    2388.8757    1412.8205    399.34343    28.402322    215.13197   -976.02111    797.83331    297.50878   -4286.3701    1074.1549    1109.9799    1053.0412    113.46547            0 
4197400000   4.1974e+09    297.10366       107143   -45.558601   0.81907956   -1059.1918    2260.9585    165.96542   -411.60153    108.96031   -468.73028   -205.43991   -225.59056    297.11039   -4301.1115    1015.8297    1069.3094    1045.3265    111.45418            0 
4197500000   4.1975e+09    290.20236       107143   -462.49737   0.81907956   -1003.3668    2239.6611   -623.70714   -609.00951   -154.77544   -81.037602   -331.24632    -377.3519    290.20933   -4284.7366    1029.1621    1086.5373    1059.3239    106.34647            0 
4197600000   4.1976e+09    289.69691       107143   -150.29586   0.81907956   -1033.3381    2204.0414    672.67576   -843.19073   -280.37262   -430.54942    205.42553    123.40298    289.70341   -4279.7647    1020.3887    1093.4163     1024.115    108.50666            0 
4197700000   4.1977e+09     290.9304       107143   -654.78678   0.81907956   -1018.7906    2232.3732   -1084.6693   -613.78982   -265.90128   -155.12647   -236.08117    636.11347    290.93695   -4298.6961    1027.1632     1125.552    1018.5425    108.64787            0 
4197800000   4.1978e+09     287.8145       107143   -228.47616   0.81907956   -1057.8371    2158.5063   -25.512055    268.29367   -928.21011   -162.02092   -240.82001    227.50501    287.82119   -4344.8169     1031.795    1136.7357    1012.6239    105.82519            0 
4197900000   4.1979e+09    301.88154       107143   -170.27524   0.81907956   -1027.4233    2346.1201     627.8436   -881.77011   -256.89921    69.199055   -78.539248   -85.286051    301.88863   -4310.2439      1063.23    1102.9134    1007.8559     108.8212            0 
4198000000    4.198e+09    292.71914       107143    611.49027   0.81907956   -989.96603     2281.187    1032.4381    1164.5327   -362.50003    34.276532   -14.242604   -581.25061     292.7263   -4317.3416    1045.8797    1126.7402    1050.5586    104.19713            0 
4198100000   4.1981e+09     294.8046       107143   -496.93443   0.81907956   -1162.0311    2132.4271    -485.3616   -151.72765   -853.71404   -183.86572    98.928917    226.83189    294.81108   -4332.3426    996.48139    1076.6152    1001.6449    95.569992            0 
4198200000   4.1982e+09    293.31033       107143    457.64541   0.81907956   -1025.8167    2251.9429     169.8446     850.4669    352.62474   -343.22279    85.738944    165.63539    293.31718   -4322.3273    1050.8393    1119.9923     1018.894    106.78507            0 
4198300000   4.1983e+09    295.72986       107143   -386.56223   0.81907956   -1021.5042    2283.2938    -38.61268   -633.03788   -488.03612   -854.45584    407.58745    48.140594    295.73701   -4303.9294    1049.3332    1114.8063     1012.687    105.59873            0 
4198400000   4.1984e+09    288.48679       107143    603.16128   0.81907956   -1100.7631    2123.0931    687.48826    780.05904    341.93654    91.292859    296.32141     285.1558    288.49333   -4304.6741    1003.9293    1080.7873    1013.5441    105.65021            0 
4198500000   4.1985e+09    294.80145       107143    -99.77745   0.81907956   -1055.2069    2239.2161    51.804813   -203.77516   -147.36201     -764.266    115.64552    780.40697     294.8084   -4279.1273    995.96724     1089.625    1030.0035    108.32468            0 
4198600000   4.1986e+09    296.10326       107143    14.750907   0.81907956   -1055.9619    2253.0089    564.07375   -1033.7115    513.89051    408.03304    612.85916   -8.0898052    296.11021   -4294.8742    985.64912    1128.0028    1024.9219    100.33848            0 
4198700000   4.1987e+09    299.97739       107143    -248.3501   0.81907956   -1122.6921    2229.5723    -105.6626   -284.82973   -354.55797   -262.07294   -321.62534    55.729056    299.98424   -4319.8677    984.59352    1089.3531    1014.6082    108.62072            0 
4198800000   4.1988e+09    289.02905       107143    24.284777   0.81907956   -1049.6475    2180.2685    186.40791     338.1828   -451.73638    48.260571    4.1592127   -70.333376    289.03612   -4307.9734    1010.5865    1113.7926    1031.9333    102.01349            0 
4198900000   4.1989e+09     295.3114       107143    230.34001   0.81907956   -981.06979    2319.0519    227.87502    285.97546    177.16954    452.82452    949.56847    136.43655    295.31812   -4291.8106     1041.494    1120.6058     1045.287    103.35404            0 
4199000000    4.199e+09    291.64678       107143   -534.69991   0.81907956   -1044.9684    2214.2009   -534.37129   -981.15171   -88.576722   -703.46919   -810.38496   -182.06589    291.65375   -4287.5802    973.66836    1120.4004    1043.9667     104.5762            0 
4199100000   4.1991e+09    285.96934       107143    611.01252   0.81907956   -1006.6414    2189.0822    1412.9199   -220.67441    640.79207   -353.00044    428.72217   -5.5971298    285.97632   -4325.4457    1063.2475    1120.1755    1030.9213       104.46            0 
4199200000   4.1992e+09    296.94974       107143     263.1283   0.81907956   -953.06226     2365.368   -246.40509    391.01515    644.77483   -130.58538    239.00213    397.00804    296.95634    -4301.528    1045.0802    1146.2113     1047.723    109.45118            0 
4199300000   4.1993e+09    293.85265       107143   -452.62529   0.81907956   -923.02632    2360.7938   -177.61687    -244.2587   -936.00029   -19.775793   -161.21516    21.915031    293.85979   -4282.9689    1060.1156     1149.628    1046.0396    104.15933            0 
4199400000   4.1994e+09    296.64618       107143    4Generated thermo.dat
Done!
stress
average  5.74866
square average  50.9931
number of blocks  410
variance  .20921460684677057337
pxx
average  15.6237
square average  451.948
number of blocks  410
variance  .71200164138958515088
pyy
average  -34.6505
square average  2062.9
number of blocks  410
variance  1.45018320940964508761
pzz
average  -33.8951
square average  1977.89
number of blocks  410
variance  1.42196377092711764091
xx
average  2235.12
square average  4.9975*10^06
number of blocks  410
variance  2.05923594639536857233
yy
average  2156.66
square average  4.65162*10^06
number of blocks  410
variance  1.03316279736238012519
zz
average  2156.79
square average  4.65215*10^06
number of blocks  410
variance  .99620731998427109651
xx
average  -1414.79
square average  2.00189*10^06
number of blocks  410
variance  .79519272092659031478
yy
average  -1414.85
square average  2.0021*10^06
number of blocks  410
variance  .85465368824411463641
zz
average  -1414.18
square average  2.00016*10^06
number of blocks  410
variance  .78852687598225937920
rm: cannot remove `running.average.out': No such file or directory
stress
average  4.701
square average  595.707
number of blocks  4000
variance  .37868443293856165589
average  5.22868
square average  606.897
number of blocks  9000
variance  .25376233532307788528
average  5.51296
square average  617.252
number of blocks  14000
variance  .20474012657833902421
average  5.29635
square average  611.24
number of blocks  19000
variance  .17519743399309008683
average  5.24362
square average  607.484
number of blocks  24000
variance  .15545476958690160002
average  5.31687
square average  613.756
number of blocks  29000
variance  .14208871602205627545
average  5.56136
square average  622.364
number of blocks  34000
variance  .13189069393099726958
average  5.66419
square average  623.122
number of blocks  39000
variance  .12310501579523944742
average  5.74866
square average  624.175
number of blocks  41000
variance  .12007395162417160338
average  5.74866
square average  624.175
number of blocks  41000
variance  .12007395162417160338
average  5.74866
square average  624.175
number of blocks  41000
variance  .12007395162417160338
average  5.74866
square average  624.175
number of blocks  41000
variance  .12007395162417160338
average  5.74866
square average  624.175
number of blocks  41000
variance  .12007395162417160338
average  5.74866
square average  624.175
number of blocks  41000
variance  .12007395162417160338
average  5.74866
square average  624.175
number of blocks  41000
variance  .12007395162417160338
average  5.74866
square average  624.175
number of blocks  41000
variance  .12007395162417160338
average  5.74866
square average  624.175
number of blocks  41000
variance  .12007395162417160338
average  5.74866
square average  624.175
number of blocks  41000
variance  .12007395162417160338
average  5.74866
square average  624.175
number of blocks  41000
variance  .12007395162417160338
average  5.74866
square average  624.175
number of blocks  41000
variance  .12007395162417160338
pressure, stress.strain, ktensor, virial are all concatenated
averages computed will all accumulated data until now
40.58521   0.81907956   -979.77748    2335.2605    1749.2541    304.10822   -731.60671    121.92185   -106.34707   -515.72781    296.65282   -4291.0618    1040.3861    1095.7995     1060.754    114.34466            0 
4199500000   4.1995e+09    293.35055       107143    367.39904   0.81907956   -1042.6039    2235.6052   -133.55776    141.00348    1094.7514    321.01371   -98.778523    1079.9838    293.35731   -4281.0254    993.57837    1080.9986    1053.9262    109.91836            0 
4199600000   4.1996e+09    295.15392       107143   -138.47679   0.81907956   -998.16295    2300.1989    196.04701   -804.03805    192.56069     136.2669    104.50845    47.415962    295.16087   -4297.6154    1043.8652    1125.8451    1020.0796    109.66262            0 
4199700000   4.1997e+09    292.51165       107143   -634.19032   0.81907956   -1022.9504     2245.884   -852.78143   -447.40775   -602.38179   -828.86135    381.19754   -65.290994    292.51881   -4289.9824    1043.7681    1078.9048    1040.4697    103.88933            0 
4199800000   4.1998e+09    297.42588       107143   -672.67024   0.81907956   -1009.0616    2314.6895   -388.65215   -1205.0648   -424.29374    81.287407    113.09178   -264.34279    297.43266   -4304.3384    1049.8965    1131.9918    1003.6905    109.69788            0 
4199900000   4.1999e+09    290.61066       107143   -292.69836   0.81907956   -1031.4697     2216.121   -171.84612   -525.76793   -180.48103    -195.4838   -21.755486   -165.58262    290.61728   -4311.6315    1072.1898    1119.9642    985.16963    102.83817            0 
4200000000      4.2e+09    296.60451       107143     177.8225   0.81907956   -1125.0961    2189.4762    1347.6611   -31.570342   -782.62326   -518.20993   -130.15697   -302.91501    296.61132   -4315.6638    995.05502    1090.8549    998.78034    105.87749            0 
Loop time of 58217.9 on 48 procs for 200000000 steps with 3750 atoms

Pair  time (%) = 19199.1 (32.978)
Bond  time (%) = 4198.7 (7.21205)
Neigh time (%) = 10456.5 (17.961)
Comm  time (%) = 17601.5 (30.2339)
Outpt time (%) = 1.50537 (0.00258576)
Other time (%) = 6760.57 (11.6125)

Nlocal:    78.125 ave 91 max 67 min
Histogram: 6 3 5 3 6 9 6 7 1 2
Nghost:    1270.06 ave 1299 max 1237 min
Histogram: 2 2 5 4 6 12 6 4 2 5
Neighs:    5971.94 ave 7160 max 4923 min
Histogram: 5 4 4 4 9 7 7 5 2 1

Total # of neighbors = 286653
Ave neighs/atom = 76.4408
Ave special neighs/atom = 6.26667
Neighbor list builds = 22305407
Dangerous builds = 0
System init for write_restart ...

real	4877m7.401s
user	0m0.065s
sys	0m0.236s
