LAMMPS (7 Aug 2019)
OMP_NUM_THREADS environment is not set. Defaulting to 1 thread. (src/comm.cpp:93)
  using 1 OpenMP thread(s) per MPI task
Reading restart file ...
  restart file = 7 Aug 2019, LAMMPS = 7 Aug 2019
  restoring atom style molecular from restart
  triclinic box = (112.455 112.455 112.455) to (157.545 157.545 157.545) with tilt (0 0 0)
  4 by 4 by 4 MPI processor grid
  restoring pair style lj/cut from restart
  restoring bond style harmonic from restart
  restoring angle style harmonic from restart
  restoring dihedral style multi/harmonic from restart
  restoring improper style harmonic from restart
  3125 atoms
  3000 bonds
  2875 angles
  3000 dihedrals
  375 impropers
Finding 1-2 1-3 1-4 neighbors ...
  special bond factors lj:   0          0          0         
  special bond factors coul: 0          0          0         
  3 = max # of 1-2 neighbors
  3 = max # of 1-3 neighbors
  6 = max # of 1-4 neighbors
  9 = max # of special neighbors
  special bonds CPU = 0.017576 secs
  read_restart CPU = 0.218817 secs
Resetting global fix info from restart file:
  fix style: deform, fix ID: compress
All restart file global fix info was re-assigned
Neighbor list info ...
  update every 1 steps, delay 0 steps, check yes
  max neighbors/atom: 2000, page size: 100000
  master list distance cutoff = 10.3
  ghost atom cutoff = 10.3
  binsize = 5.15, bins = 9 9 9
  1 neighbor lists, perpetual/occasional/extra = 1 0 0
  (1) pair lj/cut, perpetual
      attributes: half, newton on
      pair build: half/bin/newton/tri
      stencil: half/bin/3d/newton/tri
      bin: standard
Setting up Verlet run ...
  Unit style    : real
  Current step  : 10000378
  Time step     : 1
Per MPI rank memory allocation (min/avg/max) = 9.379 | 9.505 | 9.953 Mbytes
Step Temp Volume Press Density PotEng TotEng 
10000378    296.38139    91672.844    450.56412   0.79851294    -236.1011    2523.8174 
10001000    297.83111    91672.553    808.99974   0.79851547   -172.20876    2601.2096 
10002000    308.67294    91672.086    525.50346   0.79851955   -168.47174    2705.9063 
10003000    296.22665    91671.618    192.38729   0.79852362   -213.04479    2545.4327 
10004000    288.00505    91671.151    151.28264   0.79852769    -261.0047    2420.9129 
10005000    289.31953    91670.683    1637.9041   0.79853177   -123.54345    2570.6147 
10006000    292.67919    91670.215     153.0712   0.79853584   -246.40453    2479.0389 
10007000    287.65422    91669.748    446.60003   0.79853991   -165.85194    2512.7988 
10008000    298.22549     91669.28    481.69199   0.79854399    -191.6142    2585.4766 
10009000    294.07408    91668.812    39.196792   0.79854806   -123.48984    2614.9429 
10010000    291.86965    91668.345    261.30206   0.79855213   -197.05329    2520.8517 
10011000    293.81129    91667.877    412.72667   0.79855621   -221.71333    2514.2723 
10012000    292.35238     91667.41    458.62438   0.79856028   -151.38825    2571.0119 
10013000    288.63538    91666.942    -26.36523   0.79856435   -151.38115    2536.4061 
10014000     290.8238    91666.474    1158.2657   0.79856843   -229.89581    2478.2702 
10015000    285.94535    91666.007    598.42914    0.7985725   -183.21434    2479.5233 
10016000    288.69645    91665.539     957.3229   0.79857657   -208.52913    2479.8268 
10017000    293.89795    91665.072    675.40083   0.79858065   -126.57719    2610.2154 
10018000    295.04988    91664.604    661.68261   0.79858472   -148.13629    2599.3831 
10019000    295.15939    91664.137    933.92207    0.7985888   -112.45164    2636.0875 
10020000    293.67524    91663.669    362.83952   0.79859287   -122.59142    2612.1273 
10021000    299.68779    91663.201    670.41737   0.79859694   -217.06084     2573.647 
10022000    301.28411    91662.734    313.91223   0.79860102    -133.7949     2671.778 
10023000    294.62823    91662.266    746.87571   0.79860509   -184.79606    2558.7969 
10024000    293.36645    91661.799    8.5651268   0.79860916   -179.92865    2551.9146 
10025000    291.27744    91661.331    583.09373   0.79861324   -187.26842    2525.1218 
10026000    303.95234    91660.863    609.84282   0.79861731   -155.87759     2674.542 
10027000    295.75124    91660.396    -46.83727   0.79862139   -106.57423    2647.4762 
10028000    294.05731    91659.928    256.92273   0.79862546   -135.49755     2602.779 
10029000    293.98809    91659.461    685.04949   0.79862953   -100.60271    2637.0292 
10030000    301.28585    91658.993    903.12788   0.79863361   -149.51281    2656.0763 
10031000    283.20192    91658.526    11.636841   0.79863768   -148.16409    2489.0265 
10032000    295.93751    91658.058    422.87564   0.79864176   -138.50475    2617.2803 
10033000    291.97321     91657.59    421.77442   0.79864583   -142.27452    2576.5948 
10034000     292.9097    91657.123    290.96825    0.7986499    -204.8872    2522.7028 
10035000     291.1715    91656.655    344.17277   0.79865398   -155.19995    2556.2038 
10036000    292.03061    91656.188    661.52291   0.79865805   -67.809607    2651.5942 
10037000     293.6312     91655.72   -366.04976   0.79866213   -207.65256    2526.6561 
10038000     288.4311    91655.253    315.40071    0.7986662   -197.55475    2488.3302 
10039000    299.85293    91654.785    762.71381   0.79867027   -199.80485    2592.4408 
10040000     284.2012    91654.318    10.269141   0.79867435    -211.4922    2435.0037 
10041000    295.59946     91653.85    219.17783   0.79867842    -245.1336    2507.5035 
10042000    287.86508    91653.382   -468.54437    0.7986825   -183.74536    2496.8689 
10043000    297.23631    91652.915    210.08431   0.79868657   -156.25738    2611.6222 
10044000    288.17997    91652.447    246.26381   0.79869065   -148.03607    2535.5104 
10045000    294.22914     91651.98    79.792905   0.79869472   -213.88117    2525.9955 
10046000    294.87613    91651.512    340.52376    0.7986988   -206.05598    2539.8455 
10047000    297.72317    91651.045      628.872   0.79870287   -271.35059    2501.0626 
10048000    287.32687    91650.577   -152.52185   0.79870694   -214.92317    2460.6792 
10049000    302.68533     91650.11    278.82688   0.79871102    -255.0677    2563.5534 
10050000    286.55202    91649.642    737.30854   0.79871509   -268.00967    2400.3772 
10051000    294.10109    91649.175    225.57473   0.79871917   -225.53002    2513.1542 
10052000     293.5983    91648.707    909.58406   0.79872324   -232.80452    2501.1977 
10053000    290.32814    91648.239     1062.456   0.79872732   -215.90561    2487.6447 
10054000    297.76498    91647.772   -913.81959   0.79873139   -208.58735    2564.2152 
10055000    297.29221    91647.304    452.61817   0.79873547   -317.53784    2450.8623 
10056000    289.85943    91646.837   -11.899615   0.79873954   -231.49971     2467.686 
10057000    291.15552    91646.369    621.10748   0.79874362   -260.96278    2450.2921 
10058000    295.67364    91645.902    693.52894   0.79874769   -213.62352    2539.7044 
10059000    296.31626    91645.434     412.1151   0.79875177   -261.11685    2498.1951 
10060000    300.26379    91644.967    32.715253   0.79875584   -137.64987    2658.4217 
10061000    297.46496    91644.499    1016.5246   0.79875991   -197.85301    2572.1557 
10062000    293.72053    91644.032    231.89278   0.79876399   -297.28451     2437.856 
10063000     293.9009    91643.564    1187.7912   0.79876806   -182.13747    2554.6826 
10064000    300.38797    91643.097   -162.93487   0.79877214   -277.37124    2519.8567 
10065000     294.9394    91642.629      771.127   0.79877621   -293.78726    2452.7034 
10066000    295.19875    91642.162    527.30935   0.79878029   -210.67275     2538.233 
10067000     288.1374    91641.694    973.46072   0.79878436   -174.52905     2508.621 
10068000    297.36403    91641.227   -176.99099   0.79878844   -217.99939    2551.0695 
10069000    285.91976    91640.759    468.16063   0.79879251   -249.99313    2412.5062 
10070000    289.87565    91640.292    473.30225   0.79879659   -126.82499    2572.5118 
10071000    287.27923    91639.824    1179.0226   0.79880066   -215.53392    2459.6248 
10072000     284.0444    91639.357    1301.6855   0.79880474   -195.56838    2449.4674 
10073000    296.79319    91638.889    106.47554   0.79880882   -256.11431    2507.6389 
10074000    289.76498    91638.422     599.6416   0.79881289   -179.08608      2519.22 
10075000    291.54932    91637.954     496.5522   0.79881697   -269.07751    2445.8445 
10076000    290.49321    91637.487   -1536.1558   0.79882104   -120.59009    2584.4974 
10077000    292.90936    91637.019   -111.41962   0.79882512   -284.24268    2443.3441 
10078000    292.77986    91636.552    176.77195   0.79882919   -208.30043    2518.0804 
10079000    297.12919    91636.084   -663.14769   0.79883327      -253.49     2513.392 
10080000    290.57369    91635.617   -751.65054   0.79883734   -249.60965    2456.2273 
10081000    292.62743    91635.149    166.86247   0.79884142   -204.43235    2520.5291 
10082000    293.00383    91634.682      618.373   0.79884549   -307.82137    2420.6451 
10083000    296.62435    91634.214   -595.90556   0.79884957   -197.32868    2564.8523 
10084000    293.92152    91633.747    236.88516   0.79885364   -186.12134    2550.8907 
10085000    292.37385    91633.279    458.89589   0.79885772   -201.96418    2520.6359 
10086000    292.40275    91632.812    980.62724   0.79886179   -268.09076    2454.7784 
10087000    296.04503    91632.344    95.361935   0.79886587   -169.98626       2586.8 
10088000    288.56835    91631.877    -92.36126   0.79886995    -210.3855    2476.7776 
10089000    293.83211    91631.409    466.16406   0.79887402   -280.76711    2455.4124 
10090000    298.58251    91630.942    768.72697    0.7988781   -284.31473    2496.1007 
10091000    292.78155    91630.474    253.86698   0.79888217   -268.96369    2457.4329 
10092000    290.00844    91630.007   -914.42209   0.79888625   -170.06697    2530.5063 
10093000    289.62773    91629.539    203.75296   0.79889032   -168.48821    2528.5399 
10094000    295.66294    91629.072   -432.63298    0.7988944   -198.63786    2554.5904 
10095000    293.75285    91628.604    850.76898   0.79889848   -186.25986    2549.1815 
10096000    292.57045    91628.137    553.92704   0.79890255   -138.20467    2586.2262 
10097000    299.78074    91627.669    939.67802   0.79890663   -220.07951    2571.4939 
10098000    296.05878    91627.202   -425.14398    0.7989107   -245.80966    2511.1047 
10099000    299.02082    91626.735    431.45101   0.79891478   -229.90193    2554.5951 
10100000    301.49208    91626.267     272.8399   0.79891886   -162.72059    2644.7889 
10101000    293.54823      91625.8   -465.15435   0.79892293   -151.70592      2581.83 
10102000    301.71703    91625.332    796.14684   0.79892701    -188.9116    2620.6926 
10103000    291.34053    91624.865    877.42993   0.79893108   -252.40247    2460.5753 
10104000    295.62557    91624.397    994.19756   0.79893516   -272.11632    2480.7639 
10105000    300.41965     91623.93    555.65306   0.79893924   -183.03346    2614.4895 
10106000    293.27734    91623.462    385.64851   0.79894331   -160.74478    2570.2687 
10107000    296.16203    91622.995    949.35394   0.79894739   -259.73682     2498.139 
10108000    295.14864    91622.527   -74.059258   0.79895146   -220.34399    2528.0951 
10109000    293.17421     91622.06    594.65841   0.79895554   -206.32355    2523.7295 
10110000    288.79923    91621.593    -157.6042   0.79895962   -182.52203     2506.791 
10111000    286.13403    91621.125    385.46814   0.79896369   -244.28922    2420.2054 
10112000    294.87811    91620.658    111.47384   0.79896777   -161.26345    2584.6565 
10113000    287.18138     91620.19    147.03832   0.79897184   -192.24323    2482.0043 
10114000    299.40694    91619.723    491.62577   0.79897592    -126.0238    2662.0687 
10115000    293.34977    91619.255    -330.4199      0.79898   -151.12196     2580.566 
10116000    294.24145    91618.788    943.61345   0.79898407   -211.27583    2528.7155 
10117000    294.46103     91618.32    17.925348   0.79898815   -235.67897    2506.3571 
10118000    295.33738    91617.853    631.50683   0.79899223   -174.48154    2575.7151 
10119000     289.7585    91617.386    552.07155    0.7989963   -252.15785     2446.088 
10120000     292.4963    91616.918    366.53674   0.79900038   -191.44204    2532.2983 
10121000    293.73756    91616.451    1120.7997   0.79900446   -245.94769    2489.3513 
10122000     295.4928    91615.983    147.40833   0.79900853   -277.79698    2473.8469 
10123000    294.94769    91615.516    599.79275   0.79901261   -223.09832    2523.4695 
10124000    299.04964    91615.049    70.292249   0.79901669   -253.52843     2531.237 
10125000    292.54064    91614.581     438.9495   0.79902076   -153.10829     2571.045 
10126000    286.49837    91614.114    -85.24798   0.79902484   -158.62184    2509.2654 
10127000    301.62459    91613.646    117.36649   0.79902892   -208.62237     2600.121 
10128000    296.83084    91613.179    255.42789   0.79903299   -318.58363    2445.5202 
10129000    295.12335    91612.711     521.3558   0.79903707   -255.48336    2492.7202 
10130000    298.39023    91612.244   -846.92751   0.79904115   -217.07282    2561.5521 
10131000    280.63023    91611.777    289.06426   0.79904522    -250.5839     2362.659 
10132000     293.3274    91611.309     737.8878    0.7990493   -264.32775    2467.1518 
10133000    300.28239    91610.842    -29.89416   0.79905338   -194.96604    2601.2788 
10134000    296.39896    91610.374    58.866555   0.79905745   -226.45441    2533.6277 
10135000    295.18454    91609.907    439.44155   0.79906153   -237.61099    2511.1624 
10136000    291.37638     91609.44   -825.03587   0.79906561   -183.83558     2529.476 
10137000    295.01744    91608.972    1015.0778   0.79906968   -263.20125    2484.0161 
10138000    289.76315    91608.505   -24.793299   0.79907376   -276.66255    2421.6265 
10139000    291.27485    91608.037    638.44875   0.79907784   -220.83453    2491.5316 
10140000    293.44909     91607.57    492.80179   0.79908191   -209.79685     2522.816 
10141000    297.75388    91607.103     361.9068   0.79908599   -283.36923      2489.33 
10142000    289.91656    91606.635   -30.435235   0.79909007   -299.44996    2400.2678 
10143000    287.98693    91606.168    541.06433   0.79909415   -289.66356    2392.0853 
10144000    290.24797      91605.7   -2.3007749   0.79909822   -293.27063    2409.5331 
10145000    283.32149    91605.233   -321.13935    0.7991023   -316.08286    2322.2212 
10146000    290.70754    91604.766    418.36022   0.79910638   -277.52001    2429.5634 
10147000    290.46848    91604.298    433.68599   0.79911045    -321.3454    2383.5118 
10148000    287.17542    91603.831     796.6236   0.79911453   -284.95653    2389.2355 
10149000    297.27748    91603.363    177.33351   0.79911861   -309.48526    2458.7777 
10150000    288.04731    91602.896    505.56565   0.79912269    -239.9693    2442.3418 
10151000    286.52082    91602.429   -470.96719   0.79912676   -287.09108    2381.0053 
10152000    290.84699    91601.961   -537.05363   0.79913084   -238.41294     2469.969 
10153000    290.35872    91601.494    1429.9152   0.79913492   -247.12518    2456.7099 
10154000    298.17764    91601.027   -489.04029     0.799139   -339.28688    2437.3584 
10155000    291.70849    91600.559    380.36537   0.79914307   -239.39082    2477.0134 
10156000    298.34728    91600.092    568.66029   0.79914715   -289.66844    2488.5565 
10157000    292.81228    91599.624    300.06465   0.79915123   -259.65171    2467.0311 
10158000     291.9034    91599.157   -239.64825   0.79915531    -311.8869    2406.3323 
10159000    292.56768     91598.69    497.59076   0.79915938   -355.39533    2369.0097 
10160000    292.74493    91598.222     98.92946   0.79916346   -308.63643    2417.4192 
10161000    294.28078    91597.755    441.57795   0.79916754   -254.80737    2485.5501 
10162000    292.04059    91597.288     410.2579   0.79917162   -292.85001    2426.6468 
10163000    293.37325     91596.82    521.03376   0.79917569   -193.80648       2538.1 
10164000    283.00679    91596.353   -329.64381   0.79917977   -269.53655     2365.837 
10165000    303.14688    91595.886   -1167.7449   0.79918385    -298.1613    2524.7578 
10166000    295.90297    91595.418   -378.34089   0.79918793   -263.81941     2491.644 
10167000    294.44227    91594.951    187.58682     0.799192   -316.06323    2425.7981 
10168000    293.85928    91594.484    382.90487   0.79919608   -343.59923    2392.8333 
10169000    286.23193    91594.016    562.58561   0.79920016   -196.82749    2468.5787 
10170000    289.75796    91593.549    419.77903   0.79920424   -252.82397    2445.4168 
10171000    293.48259    91593.081    223.31152   0.79920832   -202.47834    2530.4464 
10172000    291.60345    91592.614    419.46823   0.79921239   -274.62632    2440.7997 
10173000    294.50961    91592.147    1333.8334   0.79921647   -324.90371    2417.5847 
10174000    298.03092    91591.679    769.31569   0.79922055   -260.71877    2514.5603 
10175000     292.6497    91591.212    353.96553   0.79922463   -197.30797    2527.8609 
10176000     288.9847    91590.745    408.25417   0.79922871   -247.08408    2443.9561 
10177000    287.90032    91590.277    623.06963   0.79923278   -265.25165    2415.6907 
10178000     295.2812     91589.81   -432.81688   0.79923686   -200.09292    2549.5805 
10179000    289.29744    91589.343    296.95777   0.79924094   -255.13656    2438.8158 
10180000     287.4507    91588.875    804.48309   0.79924502   -183.14297    2493.6125 
10181000    290.48915    91588.408    1034.5446    0.7992491   -241.21391    2463.8357 
10182000    294.30172    91587.941    74.464143   0.79925317    -180.7788    2559.7737 
10183000    294.35091    91587.473    845.01825   0.79925725   -197.37911    2543.6314 
10184000    290.86697    91587.006    366.25724   0.79926133   -244.16966    2464.3983 
10185000    283.76441    91586.539   -537.11362   0.79926541   -203.44344    2438.9851 
10186000    292.19726    91586.071    315.45873   0.79926949   -272.66918    2448.2865 
10187000    286.31305    91585.604   -139.82148   0.79927357   -190.22027    2475.9414 
10188000    293.82037    91585.137    290.03401   0.79927764   -231.18939    2504.8808 
10189000    291.61834    91584.669    428.82674   0.79928172   -298.57775     2416.987 
10190000    295.24578    91584.202   -40.469689    0.7992858   -323.32673    2426.0169 
10191000    297.66851    91583.735    781.38729   0.79928988    -136.1332     2635.771 
10192000     288.4532    91583.268     364.1398   0.79929396   -225.40246    2460.6883 
10193000    297.69236      91582.8    20.787014   0.79929804   -170.37337    2601.7529 
10194000    290.69566    91582.333    793.41278   0.79930212   -239.46549    2467.5072 
10195000    296.84271    91581.866    933.24353   0.79930619   -281.33785    2482.8765 
10196000    288.35023    91581.398       294.27   0.79931027    -281.5004    2403.6315 
10197000     288.5784    91580.931    290.07584   0.79931435   -290.35926    2396.8974 
10198000    296.76064    91580.464    691.44157   0.79931843   -303.41147    2460.0386 
10199000     292.7519    91579.996    20.262195   0.79932251   -211.43888    2514.6816 
10200000    299.31629    91579.529    503.83174   0.79932659   -181.97579    2605.2726 
10201000     292.3281    91579.062    433.01509   0.79933067    -240.0257    2482.1483 
10202000    300.30299    91578.594    687.83555   0.79933474   -253.81827    2542.6184 
10203000    293.78666    91578.127    -24.04734   0.79933882   -206.97377    2528.7825 
10204000    294.64818     91577.66    312.22589    0.7993429   -188.45301    2555.3258 
10205000    291.28845    91577.193   -705.68861   0.79934698   -247.94237    2464.5505 
10206000    295.52429    91576.725    435.99044   0.79935106   -217.34623     2534.591 
10207000    293.63794    91576.258    190.75164   0.79935514   -249.63353    2484.7379 
10208000    292.48304    91575.791    397.38538   0.79935922   -226.71018    2496.9067 
10209000    296.73542    91575.323    410.46933    0.7993633   -292.62891    2470.5863 
10210000    296.61656    91574.856    652.86181   0.79936738   -150.25028    2611.8582 
10211000    288.85913    91574.389    147.14547   0.79937145   -205.87927    2483.9915 
10212000    290.86444    91573.922    688.15749   0.79937553   -251.53827    2457.0061 
10213000    291.58375    91573.454    230.98713   0.79937961   -278.38517    2436.8575 
10214000    293.23875    91572.987   -440.38383   0.79938369      -153.45    2577.2041 
10215000    286.44842     91572.52    -461.1378   0.79938777   -246.88653    2420.5356 
10216000    288.76332    91572.052      972.222   0.79939185   -161.58522    2527.3934 
10217000    293.24906    91571.585     408.0284   0.79939593   -181.35869    2549.3914 
10218000    295.40145    91571.118   -402.75216   0.79940001   -226.42669    2524.3666 
10219000    298.17456    91570.651    654.22294   0.79940409   -228.91369    2547.7029 
10220000    295.70232    91570.183    366.24635   0.79940817   -197.55587    2556.0391 
10221000    290.09056    91569.716    707.36874   0.79941225    -203.0602    2498.2778 
10222000    290.07145    91569.249    213.41218   0.79941632   -171.08895    2530.0711 
10223000    293.03289    91568.782   -73.668749    0.7994204    -225.0624    2503.6747 
10224000    291.01475    91568.314    33.891011   0.79942448   -251.21928    2458.7248 
10225000    298.47361    91567.847    892.06435   0.79942856   -208.26572    2571.1356 
10226000    295.64659     91567.38   -69.807074   0.79943264   -269.85441    2483.2216 
10227000    295.08449    91566.913   -11.619043   0.79943672   -186.87829    2560.9634 
10228000    290.11988    91566.445    581.40988    0.7994408   -224.45734    2477.1536 
10229000    298.92462    91565.978    -11.89636   0.79944488   -250.34473    2533.2565 
10230000    292.93061    91565.511    590.20621   0.79944896   -129.27192    2598.5127 
10231000    292.78172    91565.044     524.4046   0.79945304   -243.92928    2482.4689 
10232000    290.94175    91564.576   -284.94149   0.79945712   -198.27065    2510.9936 
10233000    289.80086    91564.109    421.66231    0.7994612   -224.26196    2474.3783 
10234000    292.93796    91563.642    289.01203   0.79946528    -252.5787    2475.2744 
10235000    302.62249    91563.175    155.66576   0.79946936   -273.57033    2544.4656 
10236000    298.91731    91562.707    150.40859   0.79947344   -296.54646    2486.9866 
10237000    289.59268     91562.24   -162.62277   0.79947752   -239.62293    2457.0788 
10238000    296.01441    91561.773    267.50073    0.7994816   -277.63404    2478.8671 
10239000    296.90905    91561.306    469.70452   0.79948568    -212.1124    2552.7196 
10240000    289.23324    91560.838   -466.37937   0.79948976   -242.88151    2450.4731 
10241000    291.48075    91560.371   -189.25026   0.79949384   -240.90229    2473.3812 
10242000    292.08418    91559.904   -16.818458   0.79949792   -286.06484    2433.8378 
10243000    291.94287    91559.437    312.53402     0.799502   -194.28275     2524.304 
10244000    288.56638    91558.969    273.17735   0.79950608   -321.39326    2365.7514 
10245000    293.55683    91558.502   -305.64686   0.79951016   -336.86564    2396.7504 
10246000     289.7694    91558.035    420.91472   0.79951424   -214.52087    2483.8264 
10247000    297.13078    91557.568   -58.259686   0.79951832   -236.23492     2530.662 
10248000    295.57684      91557.1    11.563306    0.7995224   -327.76816    2424.6583 
10249000    293.37003    91556.633    329.33011   0.79952648     -254.409    2477.4676 
10250000    286.91559    91556.166    356.12137   0.79953056   -266.14629    2405.6262 
10251000     286.9751    91555.699     414.7259   0.79953464   -259.37068    2412.9559 
10252000    292.78315    91555.232   -533.34683   0.79953872   -226.45151      2499.96 
10253000    294.18589    91554.764     100.7723    0.7995428   -218.22995    2521.2439 
10254000    299.84447    91554.297   -239.36709   0.79954688   -268.91508    2523.2518 
10255000    288.30623     91553.83   -265.09452   0.79955096   -248.73391    2435.9883 
10256000    290.66214    91553.363    261.39574   0.79955504   -249.99175    2456.6688 
10257000    294.23065    91552.896    617.10412   0.79955912   -233.74348    2506.1472 
10258000    295.09427    91552.428    698.53992    0.7995632   -273.75845    2474.1743 
10259000     289.3241    91551.961   -147.16219   0.79956728   -216.90117    2477.2994 
10260000    294.06256    91551.494    527.37181   0.79957136   -139.55035    2598.7751 
10261000    294.25441    91551.027   -93.118156   0.79957544    -212.3312    2527.7808 
10262000    286.61623    91550.559    1162.2704   0.79957952   -221.93443    2447.0504 
10263000    300.68963    91550.092      268.548    0.7995836   -232.73291    2567.3041 
10264000    296.15023    91549.625   -528.44887   0.79958768   -283.25998     2474.506 
10265000    292.03343    91549.158   -381.98074   0.79959176   -246.57093    2472.8591 
10266000    296.02504    91548.691     -711.386   0.79959584   -333.64648    2422.9537 
10267000    295.49477    91548.223   -74.024486   0.79959992   -258.58565    2493.0766 
10268000    292.52793    91547.756    1432.8992     0.799604   -263.06535    2460.9696 
10269000    298.07413    91547.289     280.9844   0.79960808   -286.72128    2488.9601 
10270000    293.20316    91546.822    542.47572   0.79961216   -285.45507    2444.8675 
10271000    297.41602    91546.355   -33.114382   0.79961624   -235.12214    2534.4309 
10272000    294.17971    91545.888    479.66738   0.79962033   -248.17542     2491.241 
10273000    285.92654     91545.42   -241.34954   0.79962441   -271.25606    2391.3063 
10274000    293.96396    91544.953    598.50843   0.79962849   -198.51997    2538.8873 
10275000    292.72297    91544.486   -492.29963   0.79963257   -233.94928    2491.9018 
10276000    287.72563    91544.019    221.27535   0.79963665   -257.03418    2422.2814 
10277000    297.62825    91543.552    714.74053   0.79964073   -271.09705    2500.4323 
10278000    294.74777    91543.084    42.428553   0.79964481   -279.00132    2465.7048 
10279000    300.38901    91542.617  -0.70147337   0.79964889   -276.37017    2520.8674 
10280000    295.48666     91542.15    35.459998   0.79965297   -311.28266    2440.3041 
10281000    289.80189    91541.683   -173.67989   0.79965705   -244.76046    2453.8894 
10282000    281.80769    91541.216     53.65039   0.79966113   -267.41169    2356.7958 
10283000    286.70327    91540.749    719.81152   0.79966521   -263.09652    2406.6989 
10284000    296.64424    91540.281    65.376371    0.7996693   -269.83072    2492.5355 
10285000    294.58989    91539.814   -712.81886   0.79967338   -266.64804     2476.588 
10286000    291.10897    91539.347    484.28995   0.79967746   -273.14088    2437.6805 
10287000    290.33235     91538.88   -467.93967   0.79968154   -286.42987    2417.1597 
10288000    291.25799    91538.413    50.887575   0.79968562   -255.34056    2456.8686 
10289000    291.67264    91537.946    425.84672    0.7996897   -305.26257    2410.8078 
10290000    288.09465    91537.478    629.08857   0.79969378   -229.80844    2452.9435 
10291000    289.85337    91537.011       112.39   0.79969786   -211.77288    2487.3564 
10292000    293.00084    91536.544    623.09354   0.79970195   -248.32199    2480.1166 
10293000    298.96151    91536.077    -18.22932   0.79970603   -186.95452    2596.9902 
10294000    291.19907     91535.61   -823.35603   0.79971011   -243.07519    2468.5852 
10295000    290.97566    91535.143    522.31778   0.79971419   -182.47754    2527.1025 
10296000     286.7963    91534.676   -345.59993   0.79971827   -217.23788    2453.4237 
10297000    300.63795    91534.208   -314.47792   0.79972235   -199.19143    2600.3644 
10298000    291.63089    91533.741    135.87852   0.79972643   -248.01584    2467.6658 
10299000    291.23753    91533.274   -385.88446   0.79973051   -281.46954    2430.5491 
10300000    297.32633    91532.807   -1139.1104    0.7997346   -256.95222    2511.7656 
10301000    304.18302     91532.34    663.90421   0.79973868   -157.93907    2674.6286 
10302000    298.26975    91531.873   -92.029844   0.79974276   -344.69898     2432.804 
10303000    293.42911    91531.406   -78.831233   0.79974684   -273.78604    2458.6407 
10304000     298.3544    91530.938   -135.53677   0.79975092   -219.57987    2558.7114 
10305000    285.28306    91530.471   -4.3956392     0.799755   -251.91203    2404.6583 
10306000    291.64665    91530.004    424.58973   0.79975909   -228.49625    2487.3321 
10307000    295.91353    91529.537   -40.733103   0.79976317   -314.78809    2440.7737 
10308000    295.61076     91529.07    429.97845   0.79976725   -329.95598    2422.7863 
10309000    292.10818    91528.603   -13.177784   0.79977133   -276.15825    2443.9679 
10310000    292.57836    91528.136    811.76072   0.79977541   -258.07038    2466.4341 
10311000     292.6177    91527.668   -49.442171   0.79977949     -220.981    2503.8899 
10312000     307.2507    91527.201   -88.791986   0.79978358   -183.69638    2677.4376 
10313000    302.60865    91526.734   -758.80782   0.79978766   -290.69939    2527.2077 
10314000    295.31891    91526.267   -50.771709   0.79979174   -286.61915    2463.4055 
10315000    292.42363      91525.8   -320.81002   0.79979582   -234.66792    2488.3957 
10316000    299.64453    91525.333    347.23352    0.7997999   -267.27672    2523.0283 
10317000    295.32391    91524.866   -22.061576   0.79980399   -323.49607    2426.5751 
10318000    289.44323    91524.399   -239.01106   0.79980807     -284.473     2410.837 
10319000    288.65885    91523.932   -385.18957   0.79981215   -273.87013    2414.1357 
10320000    295.45255    91523.464    717.64804   0.79981623   -263.32212    2487.9469 
10321000    294.28525    91522.997   -302.72431   0.79982031   -289.15713     2451.242 
10322000    288.13931     91522.53   -615.92602    0.7998244   -243.72326    2439.4446 
10323000    296.08507    91522.063    481.86311   0.79982848   -349.24353    2407.9156 
10324000    293.84633    91521.596   -267.22183   0.79983256   -252.00917    2484.3028 
10325000    291.38153    91521.129    284.09459   0.79983664   -305.09621    2408.2633 
10326000    288.88843    91520.662    -291.6331   0.79984072   -287.43865     2402.705 
10327000    287.01793    91520.195    617.21817   0.79984481   -305.99006    2366.7354 
10328000    293.43548    91519.728   -326.40884   0.79984889   -338.14005    2394.3459 
10329000    291.11449    91519.261    364.15974   0.79985297   -261.86738    2449.0055 
10330000    300.29911    91518.793   -304.80024   0.79985705   -295.78919    2500.6113 
10331000    294.72885    91518.326    908.21953   0.79986114   -317.99588    2426.5341 
10332000    297.65694    91517.859    439.30209   0.79986522   -253.87977    2517.9167 
10333000     296.7494    91517.392    326.81828    0.7998693   -327.61323    2435.7322 
10334000    292.20226    91516.925    285.63344   0.79987338   -228.31065    2492.6916 
10335000    289.59867    91516.458     429.6905   0.79987746   -309.29057    2387.4669 
10336000    294.06277    91515.991     313.9678   0.79988155   -286.44313    2451.8842 
10337000    294.22351    91515.524    117.68822   0.79988563   -250.94775    2488.8764 
10338000    294.37989    91515.057   -136.20814   0.79988971   -279.33341     2461.947 
10339000    294.69383     91514.59    927.44932   0.79989379   -212.51363    2531.6903 
10340000     291.1147    91514.123     433.3318   0.79989788   -293.57623    2417.2986 
10341000    303.55488    91513.655    822.28685   0.79990196   -308.16073    2518.5576 
10342000    297.55622    91513.188    -485.7197   0.79990604   -253.60165    2517.2569 
10343000      285.153    91512.721    85.960175   0.79991013    -267.0683    2388.2909 
10344000    289.75342    91512.254    297.47617   0.79991421   -252.45398    2445.7445 
10345000    291.64837    91511.787    859.05217   0.79991829   -265.76023    2450.0842 
10346000    288.21865     91511.32   -573.62855   0.79992237   -264.87152    2419.0351 
10347000    286.23173    91510.853    209.13855   0.79992646   -287.91098    2377.4933 
10348000    286.76923    91510.386    413.23102   0.79993054   -153.77113    2516.6384 
10349000    290.53048    91509.919    163.06777   0.79993462   -228.92686    2476.5077 
10350000    283.97497    91509.452     114.5915    0.7999387   -269.22727     2375.162 
10351000    299.93663    91508.985    44.429951   0.79994279   -256.65235    2536.3727 
10352000    295.77063    91508.518   -920.30578   0.79994687   -347.18051    2407.0506 
10353000    298.46683    91508.051    96.692675   0.79995095   -274.81591    2504.5223 
10354000    289.72859    91507.584    812.86137   0.79995504   -225.54356    2472.4237 
10355000    295.45454    91507.117   -755.10439   0.79995912   -160.93589    2590.3518 
10356000    288.54001     91506.65    103.97147    0.7999632   -231.22315     2455.676 
10357000    294.25458    91506.182     63.46948   0.79996729   -209.01373    2531.0998 
10358000    294.56679    91505.715    17.195442   0.79997137   -221.45648    2521.5643 
10359000    289.53497    91505.248   -426.87388   0.79997545   -205.88252    2490.2818 
10360000    294.94528    91504.781    38.579166   0.79997953   -272.25402    2474.2913 
10361000    301.41391    91504.314   -187.70663   0.79998362    -230.2304    2576.5512 
10362000     286.9611    91503.847   -414.91156    0.7999877   -209.53241    2462.6639 
10363000    295.84735     91503.38   -350.56012   0.79999178    -249.7416    2505.2039 
10364000    291.56011    91502.913   -83.783975   0.79999587   -219.54761    2495.4748 
10365000    293.96597    91502.446   -58.501695   0.79999995   -234.61925    2502.8067 
10366000     306.0457    91501.979    710.67605   0.80000403   -219.88547    2630.0276 
10367000    293.12662    91501.512    265.61035   0.80000812   -253.79219    2475.8177 
10368000    298.53793    91501.045     681.0359    0.8000122   -242.22134     2537.779 
10369000    298.78386    91500.578   -288.74653   0.80001628   -251.72425    2530.5661 
10370000    297.44346    91500.111     410.5952   0.80002037   -256.43484    2513.3737 
10371000    298.00719    91499.644   -216.55927   0.80002445   -311.08874    2463.9693 
10372000     288.4815    91499.177    621.48824   0.80002853   -238.91517    2447.4391 
10373000    289.77196     91498.71    1243.9385   0.80003262   -213.20996    2485.1612 
10374000    293.73484    91498.243    438.65388    0.8000367   -160.18229    2575.0914 
10375000    286.81751    91497.776    1006.4385   0.80004079   -195.55485    2475.3043 
10376000    296.57264    91497.309    968.50034   0.80004487   -249.73133    2511.9681 
10377000    296.54064    91496.842    302.93125   0.80004895   -187.57435    2573.8271 
10378000    291.35085    91496.375   -340.91202   0.80005304   -211.98282    2501.0911 
10379000    297.71291    91495.908   -423.17826   0.80005712   -228.37782    2543.9398 
10380000     287.1754    91495.441    7.2831507    0.8000612   -158.98227    2515.2095 
10381000    295.74797    91494.974    805.09512   0.80006529   -164.18819    2589.8319 
10382000    304.56142    91494.507     1768.721   0.80006937   -185.95139      2650.14 
10383000     294.1543     91494.04    613.13969   0.80007345   -231.50074     2507.679 
10384000    291.31564    91493.573    63.414145   0.80007754   -238.42904    2474.3169 
10385000    298.91159    91493.106   -375.49667   0.80008162   -173.50105    2609.9788 
10386000    295.39934    91492.639    320.10529   0.80008571   -257.47778    2493.2958 
10387000    292.85253    91492.172    1056.0562   0.80008979   -216.77278    2510.2848 
10388000    294.07138    91491.705    517.28982   0.80009387   -210.48549    2527.9221 
10389000    295.96512    91491.238    679.83958   0.80009796   -209.96425    2546.0779 
10390000    287.69765    91490.771    998.78705   0.80010204   -318.97362    2360.0814 
10391000    292.42618    91490.304     201.5536   0.80010613    -188.2891    2534.7983 
10392000    293.00483    91489.837    282.40158   0.80011021   -222.62729    2505.8485 
10393000    282.85645     91489.37    164.22804   0.80011429   -211.85792    2422.1156 
10394000    294.39554    91488.903    626.34308   0.80011838   -295.99059    2445.4356 
10395000    298.05299    91488.436    771.32643   0.80012246   -231.71177    2543.7727 
10396000    288.97431    91487.969    1152.4236   0.80012655   -193.24264    2497.7008 
10397000    296.59123    91487.502    932.31695   0.80013063   -190.30469    2571.5678 
10398000    284.20142    91487.035    625.36257   0.80013471   -331.68493    2314.8131 
10399000    289.45386    91486.568    575.29906    0.8001388   -252.49602    2442.9129 
10400000    286.73851    91486.101    90.551699   0.80014288   -199.18544    2470.9381 
10401000    286.15483    91485.634    71.958552   0.80014697   -303.59313    2361.0951 
10402000    293.91073    91485.167    -152.2714   0.80015105    -199.6917    2537.2198 
10403000    292.06181      91484.7    892.22174   0.80015514   -153.59148    2566.1029 
10404000    287.34999    91484.233    -146.3398   0.80015922   -228.81286    2447.0048 
10405000    293.63648    91483.766    245.39534    0.8001633   -217.56625    2516.7916 
10406000    295.46955    91483.299    318.69962   0.80016739   -154.86191    2596.5655 
10407000    293.48886    91482.832    290.07682   0.80017147   -138.12828    2594.8549 
10408000    294.59998    91482.365    436.37199   0.80017556   -216.33787     2526.992 
10409000    296.41209    91481.898    278.71009   0.80017964    -156.1779    2604.0265 
10410000    291.82109    91481.431    536.04081   0.80018373   -237.27348    2480.1792 
10411000    289.89216    91480.964    326.61596   0.80018781   -237.31228    2462.1782 
10412000    289.35946    91480.497   -389.62046    0.8001919   -206.42009    2488.1098 
10413000    291.85081     91480.03    898.47554   0.80019598   -320.23705    2397.4925 
10414000    293.01283    91479.563   -84.135002   0.80020007   -280.34329     2448.207 
10415000    290.10841    91479.096     61.73817   0.80020415   -133.08778    2568.4164 
10416000     292.0503    91478.629   -211.62435   0.80020823   -235.96081    2483.6263 
10417000    287.94659    91478.162    420.89087   0.80021232   -233.11892    2448.2543 
10418000     295.8856    91477.695   -93.446413    0.8002164   -174.71026    2580.5915 
10419000    292.80208    91477.228     1080.788   0.80022049    -216.7644    2509.8234 
10420000    294.30441    91476.761    600.73129   0.80022457   -95.747194    2644.8304 
10421000    295.39753    91476.294    380.26145   0.80022866   -240.12182    2510.6349 
10422000    289.96557    91475.828   -172.69117   0.80023274   -223.55395    2476.6201 
10423000    286.98318    91475.361    349.02593   0.80023683   -230.25815    2442.1437 
10424000    298.44144    91474.894    1123.5789   0.80024091    -196.7651    2582.3367 
10425000    298.97566    91474.427    709.97736     0.800245   -209.00887    2575.0676 
10426000    296.97025     91473.96    39.551688   0.80024908   -261.51455    2503.8875 
10427000    293.17955    91473.493    828.71014   0.80025317   -248.23847    2481.8644 
10428000    294.73106    91473.026     514.9213   0.80025725   -177.19549    2567.3551 
10429000    290.29123    91472.559    884.35386   0.80026134   -259.46131    2443.7453 
10430000    290.01054    91472.092   -368.13995   0.80026542   -213.71581     2486.877 
10431000    296.36851    91471.625     390.1833   0.80026951   -194.05141    2565.7472 
10432000    291.87854    91471.158   -46.588323   0.80027359   -223.69132    2494.2964 
10433000    293.62364    91470.691     235.1679   0.80027768   -171.14811    2563.0901 
10434000    297.53252    91470.224    120.95488   0.80028176   -251.94976    2518.6881 
10435000    288.92111    91469.757    1167.4671   0.80028585   -182.70365    2507.7444 
10436000     299.5495     91469.29     593.7597   0.80028993   -356.08467    2433.3354 
10437000    292.49075    91468.823   -428.45585   0.80029402   -294.19616    2429.4925 
10438000    290.65554    91468.357    98.208285    0.8002981   -271.49825    2435.1008 
10439000    289.83688     91467.89    623.98939   0.80030219   -208.90736    2490.0683 
10440000    294.10374    91467.423    440.30372   0.80030628   -320.75916    2417.9498 
10441000    293.10841    91466.956    678.34601   0.80031036   -263.93312    2465.5072 
10442000    295.46248    91466.489    87.789769   0.80031445   -265.70942    2485.6521 
10443000    294.92309    91466.022    997.60275   0.80031853   -274.69044    2471.6483 
10444000    297.23074    91465.555    783.12827   0.80032262   -290.78271     2477.045 
10445000    291.41038    91465.088    22.548176    0.8003267    -245.8264    2467.8018 
10446000    283.36908    91464.621    290.73523   0.80033079   -287.78539    2350.9618 
10447000    291.65434    91464.154   -368.69786   0.80033487   -276.95278    2438.9472 
10448000    291.11872    91463.687    803.96273   0.80033896   -200.45147    2510.4608 
10449000    297.02899     91463.22   -4.9903809   0.80034304   -204.33915    2561.6098 
10450000    290.16528    91462.754    62.204617   0.80034713   -186.62213    2515.4116 
10451000    294.98346    91462.287   -527.72869   0.80035122   -274.76778    2472.1331 
10452000    298.62236     91461.82    94.209671    0.8003553   -260.26598    2520.5206 
10453000    296.15083    91461.353    890.24001   0.80035939   -240.55133    2517.2202 
10454000    288.36115    91460.886     38.84484   0.80036347   -220.62737    2464.6063 
10455000    287.51264    91460.419   -544.09094   0.80036756   -216.18555    2461.1467 
10456000    295.70671    91459.952    390.92174   0.80037164   -252.66345    2500.9724 
10457000    293.38999    91459.485    202.85878   0.80037573   -209.60907    2522.4534 
10458000     294.4485    91459.018    557.83605   0.80037982   -215.97526    2525.9441 
10459000     282.1394    91458.552    531.24623    0.8003839   -205.81825    2421.4782 
10460000    294.11284    91458.085      766.727   0.80038799   -220.17085    2518.6228 
10461000    284.72803    91457.618   -241.77633   0.80039207   -176.86417    2474.5377 
10462000    291.79229    91457.151   -137.76322   0.80039616   -150.19974    2566.9848 
10463000    290.63815    91456.684    484.54343   0.80040025   -184.19229    2522.2449 
10464000    294.89824    91456.217    294.45707   0.80040433   -272.40692    2473.7004 
10465000     290.7265     91455.75    190.87131   0.80040842   -161.62504    2545.6348 
10466000    287.38474    91455.283   -296.67241    0.8004125    -225.9531    2450.1882 
10467000    291.75519    91454.816    750.03841   0.80041659    -231.3776    2485.4615 
10468000    298.20067     91454.35   -59.581239   0.80042068   -207.72749    2569.1322 
10469000    288.99968    91453.883    916.80381   0.80042476   -237.87774    2453.3019 
10470000    293.84767    91453.416    588.15614   0.80042885   -253.68188    2482.6425 
10471000    289.52059    91452.949   -630.51599   0.80043294   -198.55827    2497.4721 
10472000     293.0017    91452.482     976.4771   0.80043702    -200.8215    2527.6252 
10473000    288.84473    91452.015    675.36032   0.80044111    -135.9294    2553.8074 
10474000    295.32311    91451.548    1110.9255   0.80044519   -225.45752    2524.6062 
10475000    294.03501    91451.082    697.90677   0.80044928   -150.01675    2588.0521 
10476000    292.74535    91450.615     143.4225   0.80045337   -244.57584    2481.4837 
10477000    280.73343    91450.148    197.48881   0.80045745   -191.01197     2423.192 
10478000    294.38132    91449.681    380.90471   0.80046154   -208.56194    2532.7318 
10479000     290.4005    91449.214   -619.23138   0.80046563   -248.95163    2455.2725 
10480000    288.91874    91448.747   -139.36951   0.80046971   -194.84787    2495.5781 
10481000    296.43493     91448.28   -456.86874    0.8004738   -276.12393    2484.2931 
10482000    295.37319    91447.813   -275.61166   0.80047789   -204.35448    2546.1756 
10483000    295.54596    91447.347    443.55088   0.80048197   -218.00231    2534.1367 
10484000    297.57786     91446.88     738.0575   0.80048606   -229.04853    2542.0115 
10485000    294.72016    91446.413     474.4683   0.80049015   -193.48232    2550.9667 
10486000    298.81695    91445.946    619.68604   0.80049423   -146.38218    2636.2164 
10487000    294.03458    91445.479     366.9656   0.80049832   -172.91837    2565.1466 
10488000    278.34961    91445.012   -395.68397   0.80050241   -243.91349    2348.0921 
10489000    290.75145    91444.546    808.38721   0.80050649   -258.77495    2448.7172 
10490000    286.49878    91444.079    -317.3826   0.80051058   -216.29042    2451.6007 
10491000    291.01642    91443.612    -417.5421   0.80051467   -185.42871     2524.531 
10492000    286.47126    91443.145   -651.63295   0.80051875   -158.38927    2509.2456 
10493000    291.39408    91442.678    688.41413   0.80052284   -260.99528    2452.4811 
10494000    293.87582    91442.211    280.19336   0.80052693   -193.71679    2542.8697 
10495000    292.94541    91441.745   -476.68678   0.80053101   -251.39769    2476.5248 
10496000    296.16408    91441.278   -529.87543    0.8005351   -198.62348    2559.2714 
10497000    298.15774    91440.811    199.14959   0.80053919   -270.83805     2505.622 
10498000    294.39001    91440.344   -483.18465   0.80054327   -236.02197    2505.3527 
10499000    291.91229    91439.877    98.570842   0.80054736   -275.23163    2443.0704 
10500000    297.07252     91439.41    67.075736   0.80055145   -210.34426    2556.0101 
10501000    291.19148    91438.944     128.9786   0.80055553   -178.65366    2532.9362 
10502000    291.52078    91438.477    431.34927   0.80055962   -174.07143    2540.5848 
10503000    286.27112     91438.01   -197.75305   0.80056371   -262.12632    2403.6449 
10504000    286.34614    91437.543    535.70039    0.8005678   -210.54167     2455.928 
10505000    291.71885    91437.076     324.8576   0.80057188   -255.54436    2460.9563 
10506000    287.09146    91436.609    100.44953   0.80057597   -201.42697    2471.9832 
10507000    290.80532    91436.143    1407.7695   0.80058006   -258.37551    2449.6183 
10508000    292.41498    91435.676    1270.5933   0.80058415   -211.30277    2511.6803 
10509000    298.43729    91435.209    734.86894   0.80058823   -311.82152    2467.2416 
10510000    291.06393    91434.742    559.75052   0.80059232   -265.09072    2445.3113 
10511000    296.18783    91434.275   -264.39715   0.80059641   -203.51723    2554.5989 
10512000    285.88557    91433.809   -238.52579   0.80060049   -261.62288     2400.558 
10513000    298.00781    91433.342   -86.305263   0.80060458   -209.01389    2566.0499 
10514000    299.54352    91432.875    549.93049   0.80060867   -184.66883    2604.6956 
10515000    295.18035    91432.408     413.2595   0.80061276   -230.46837     2518.266 
10516000    292.35968    91431.941    409.97545   0.80061684   -227.10952    2495.3586 
10517000    291.50387    91431.475   -224.42321   0.80062093   -215.61307    2498.8858 
10518000    287.67469    91431.008    309.25391   0.80062502   -261.01356    2417.8277 
10519000    303.28288    91430.541    278.88794   0.80062911   -221.26174    2602.9238 
10520000    295.28929    91430.074    405.94602   0.80063319   -305.99346    2443.7554 
10521000    290.99525    91429.607    75.029748   0.80063728   -198.12605    2511.6364 
10522000    290.74532    91429.141    1121.7002   0.80064137   -281.34935    2426.0858 
10523000    296.23649    91428.674    320.63611   0.80064546   -273.90407    2484.6652 
10524000    298.00207    91428.207    1119.3626   0.80064954   -233.44473    2541.5656 
10525000    304.43772     91427.74    101.24916   0.80065363   -261.08718    2573.8522 
10526000    290.43849    91427.274    240.68329   0.80065772   -220.68826    2483.8896 
10527000    290.94863    91426.807    53.470286   0.80066181   -276.78007    2432.5483 
10528000    302.32466     91426.34    28.384407    0.8006659   -246.29289    2568.9696 
10529000    298.61201    91425.873   -112.04537   0.80066998   -288.23625    2492.4539 
10530000    298.51158    91425.406    883.60082   0.80067407   -250.53685    2529.2181 
10531000    300.84294     91424.94    223.62815   0.80067816   -199.72633    2601.7383 
10532000    292.98462    91424.473     1149.315   0.80068225   -237.46983    2490.8177 
10533000     293.2717    91424.006    498.77797   0.80068634   -247.29335    2483.6676 
10534000    297.01985    91423.539    -104.2389   0.80069042    -287.7478    2478.1161 
10535000    287.24589    91423.073   -1111.2646   0.80069451   -212.52413    2462.3241 
10536000    300.26441    91422.606   -72.018111    0.8006986   -266.16321    2529.9141 
10537000    295.15994    91422.139     416.0907   0.80070269   -234.65527     2513.889 
10538000    288.68835    91421.672    149.58236   0.80070678   -283.63716    2404.6434 
10539000    292.11225    91421.205    288.39053   0.80071086   -214.92871    2505.2354 
10540000     293.2097    91420.739   -397.72356   0.80071495   -274.34193    2456.0417 
10541000    292.53042    91420.272    89.540578   0.80071904   -306.42135    2417.6367 
10542000    296.49782    91419.805   -49.972519   0.80072313   -232.56665    2528.4361 
10543000    289.29485    91419.338    311.34228   0.80072722   -289.15645    2404.7718 
10544000    289.75607    91418.872    887.54826    0.8007313   -219.82194    2478.4012 
10545000    287.51406    91418.405    216.09271   0.80073539   -306.87017    2370.4753 
10546000    283.90802    91417.938    467.91533   0.80073948   -228.80154    2414.9643 
10547000    296.66392    91417.471    641.81769   0.80074357   -251.49565    2511.0537 
10548000    302.00992    91417.005    286.25889   0.80074766   -261.63749    2550.6941 
10549000     286.8588    91416.538      119.029   0.80075175   -262.80776    2408.4359 
10550000    294.27486    91416.071    825.46338   0.80075583   -227.12949    2513.1729 
10551000    294.52174    91415.604    134.57611   0.80075992    -285.0528    2457.5486 
10552000    293.67915    91415.138    186.20022   0.80076401   -226.58865    2508.1664 
10553000    295.07578    91414.671    454.56379    0.8007681   -283.05256    2464.7081 
10554000    291.06561    91414.204     999.1876   0.80077219   -338.09891    2372.3188 
10555000    292.58623    91413.738    186.34402   0.80077628   -299.25444    2425.3234 
10556000    297.92104    91413.271    818.74553   0.80078037   -299.81013    2474.4457 
10557000     292.6483    91412.804   -479.16132   0.80078445   -229.67543    2495.4803 
10558000    291.31543    91412.337    153.45628   0.80078854   -278.89199    2433.8521 
10559000    286.79142    91411.871   -330.85614   0.80079263   -325.51722     2345.099 
10560000    296.22091    91411.404    141.96525   0.80079672   -250.57245    2507.8516 
10561000    296.16292    91410.937   -92.309789   0.80080081     -286.546    2471.3381 
10562000    285.24401     91410.47    296.87048    0.8008049    -328.1463    2328.0603 
10563000    290.72339    91410.004    914.09501   0.80080899    -288.0551    2419.1758 
10564000    298.01578    91409.537    370.08442   0.80081308    -251.3336    2523.8044 
10565000    298.13068     91409.07   -557.71777   0.80081716   -287.24902     2488.959 
10566000    291.96405    91408.603    421.43278   0.80082125   -251.48715    2467.2968 
10567000    298.83648    91408.137    8.7677948   0.80082534   -184.35614    2598.4243 
10568000    290.79532     91407.67   -485.78364   0.80082943   -248.77318    2459.1275 
10569000    291.68526    91407.203     68.36107   0.80083352   -373.48033    2342.7076 
10570000    289.63787    91406.737    652.43285   0.80083761   -258.47331    2438.6492 
10571000    291.50914     91406.27    240.32901    0.8008417   -311.15769    2403.3901 
10572000     291.6789    91405.803    390.16915   0.80084579   -285.55322    2430.5754 
10573000    299.44834    91405.337    847.95311   0.80084988   -252.45963    2536.0184 
10574000    298.99365     91404.87    231.30698   0.80085396   -207.49258    2576.7514 
10575000    297.18779    91404.403    168.76333   0.80085805   -193.26225    2574.1655 
10576000    289.93901    91403.936   -168.33112   0.80086214   -206.94636    2492.9804 
10577000    292.82264     91403.47    246.33146   0.80086623   -249.10113    2477.6781 
10578000    291.43922    91403.003   -250.79394   0.80087032   -334.13563    2379.7611 
10579000    295.34964    91402.536   -14.635546   0.80087441   -178.48056    2571.8303 
10580000    291.53894     91402.07    435.14645    0.8008785   -233.04281    2481.7825 
10581000    294.59622    91401.603    432.88695   0.80088259   -203.02034    2540.2746 
10582000    290.35882    91401.136    54.490611   0.80088668   -206.05276    2497.7833 
10583000    291.00536     91400.67    923.05596   0.80089077   -300.25066    2409.6059 
10584000    293.87171    91400.203    217.83929   0.80089486   -371.93979    2364.6085 
10585000    292.54521    91399.736    449.21321   0.80089895   -239.54648    2484.6493 
10586000    289.77792    91399.269    627.11747   0.80090304   -201.20541    2497.2213 
10587000    294.34731    91398.803    340.71795   0.80090713   -262.64382    2478.3332 
10588000    291.25715    91398.336    263.96727   0.80091122   -256.20769    2455.9937 
10589000    289.18407    91397.869    486.08982    0.8009153    -218.9557     2473.941 
10590000    299.79159    91397.403     419.6463   0.80091939   -288.85893    2502.8156 
10591000    303.47542    91396.936    294.54167   0.80092348   -132.10502    2693.8734 
10592000    302.37347    91396.469    14.380249   0.80092757   -209.21764    2606.4994 
10593000    299.57339    91396.003    306.88907   0.80093166   -256.21217    2533.4304 
10594000    288.51585    91395.536    -264.3113   0.80093575   -262.87409    2423.8001 
10595000    296.15503    91395.069    392.73239   0.80093984    -196.4108    2561.3998 
10596000    292.35219    91394.603   -292.16439   0.80094393   -198.16035     2524.238 
10597000    299.56742    91394.136    534.25311   0.80094802   -213.96968    2575.6172 
10598000    287.34195    91393.669   -203.27784   0.80095211   -167.74895    2507.9938 
10599000    299.96927    91393.203     561.5908    0.8009562   -210.62945    2582.6996 
10600000    290.66002    91392.736    1254.8523   0.80096029    -230.3628    2476.2781 
10601000    288.49169    91392.269    121.23106   0.80096438   -274.90661    2411.5426 
10602000    299.36556    91391.803   -25.744417   0.80096847   -237.36656    2550.3407 
10603000    292.22555    91391.336    729.00309   0.80097256   -219.44022    2501.7789 
10604000    289.88649    91390.869    220.26552   0.80097665   -182.62585    2516.8118 
10605000    298.73905    91390.403     213.1467   0.80098074   -235.80263    2546.0705 
10606000    288.22628    91389.936    1455.4078   0.80098483   -166.09488    2517.8828 
10607000    293.18774    91389.469    565.74199   0.80098892   -240.18303    2489.9961 
10608000    292.90892    91389.003    7.1295287   0.80099301   -284.09618    2443.4865 
10609000    294.18608    91388.536    2076.0106    0.8009971   -244.19881    2495.2768 
10610000     287.8712    91388.069    716.28395   0.80100119   -153.74089    2526.9303 
10611000    292.79326    91387.603    354.25719   0.80100528   -256.80991    2469.6957 
10612000     293.5409    91387.136    470.46985   0.80100937    -281.1667     2452.301 
10613000    300.36492    91386.669    946.26103   0.80101346   -296.71027    2500.3031 
10614000    295.43513    91386.203    1031.0393   0.80101755   -296.68189     2454.425 
10615000    286.25704    91385.736    445.53774   0.80102164     -304.801     2360.839 
10616000    291.24307     91385.27   -565.76553   0.80102573   -257.40763    2454.6626 
10617000      296.085    91384.803    336.97888   0.80102982   -297.85417    2459.3043 
10618000    289.38974    91384.336    593.27589   0.80103391   -217.20194    2477.6099 
10619000    292.60163     91383.87    221.34022     0.801038   -264.28109    2460.4401 
10620000    293.63686    91383.403    171.25216   0.80104209    -187.5039    2546.8574 
10621000    287.62227    91382.936   -433.48544   0.80104618   -294.85428    2383.4988 
10622000     296.4131     91382.47    512.67229   0.80105027   -180.45133    2579.7624 
10623000    298.10555    91382.003    340.63232   0.80105436   -234.37745    2541.5965 
10624000    288.47257    91381.536    38.983315   0.80105845   -239.35225    2446.9189 
10625000    301.74554     91381.07   -518.13691   0.80106255   -266.89146    2542.9783 
10626000    287.77727    91380.603    -191.4428   0.80106664   -225.25191    2454.5446 
10627000    289.06846    91380.137    453.43531   0.80107073   -216.47899    2475.3412 
10628000    296.25527     91379.67    1103.3541   0.80107482   -218.10017    2540.6439 
10629000    293.81219    91379.203    63.773383   0.80107891   -254.87529    2481.1187 
10630000    292.75551    91378.737    1247.6867     0.801083   -231.08577    2495.0684 
10631000    289.31015     91378.27   -268.30079   0.80108709   -225.99294    2468.0778 
10632000    287.62071    91377.804    1044.8251   0.80109118   -115.97164     2562.367 
10633000    288.57559    91377.337    488.74037   0.80109527   -239.96882    2447.2617 
10634000    293.61208     91376.87    984.12201   0.80109936   -174.74346    2559.3871 
10635000    290.87887    91376.404    -6.541502   0.80110345   -263.68571    2444.9931 
10636000    288.35256    91375.937    300.22686   0.80110754   -211.42469    2473.7289 
10637000    292.97048     91375.47    272.36523   0.80111163   -189.98864    2538.1673 
10638000    282.04967    91375.004    71.805349   0.80111572   -170.80153    2455.6593 
10639000    301.16468    91374.537    241.48829   0.80111982   -150.72118    2653.7395 
10640000    288.67366    91374.071    681.24172   0.80112391   -238.68559    2449.4581 
10641000    299.51405    91373.604   -2.9770763     0.801128   -212.24552    2576.8445 
10642000    299.85523    91373.137   -851.05698   0.80113209   -228.15654    2564.1105 
10643000    289.91733    91372.671    219.42337   0.80113618   -247.67096    2452.0539 
10644000    296.91671    91372.204    296.94741   0.80114027   -123.85333    2641.0501 
10645000    285.40421    91371.738    321.43459   0.80114436   -179.23241     2478.466 
10646000    290.19033    91371.271   -586.18404   0.80114845   -178.28838    2523.9787 
10647000    291.93008    91370.804    132.02548   0.80115254   -239.27771    2479.1899 
10648000    292.94924    91370.338    245.25066   0.80115663   -139.29169    2588.6665 
10649000    298.14454    91369.871    585.69562   0.80116073   -271.69767    2504.6394 
10650000    295.15271    91369.405    250.40951   0.80116482   -188.56074    2559.9162 
10651000    293.65216    91368.938    282.05704   0.80116891   -240.00869    2494.4951 
10652000    289.14636    91368.472    572.54835     0.801173   -219.25262    2473.2929 
10653000    295.28625    91368.005    460.56407   0.80117709   -259.76587    2489.9546 
10654000    306.20315    91367.538    374.92583   0.80118118   -256.52205    2594.8572 
10655000    291.57674    91367.072    622.76235   0.80118527   -255.87224    2459.3051 
10656000    287.99875    91366.605      458.965   0.80118936   -229.62845    2452.2304 
10657000    291.50661    91366.139    65.407796   0.80119346   -122.63704    2591.8872 
10658000     299.9705    91365.672    1194.5477   0.80119755   -273.76913    2519.5713 
10659000    292.51659    91365.206    360.49308   0.80120164   -348.31764    2375.6117 
10660000    294.07549    91364.739    366.10102   0.80120573   -277.26602    2461.1798 
10661000    293.55747    91364.272    1136.0644   0.80120982   -187.61266    2546.0093 
10662000    297.56515    91363.806   -489.23805   0.80121391   -350.56366    2420.3781 
10663000    296.90869    91363.339    103.97824   0.80121801   -223.17128    2541.6574 
10664000    290.28675    91362.873    739.06451    0.8012221    -297.4644    2405.7005 
10665000     294.7126    91362.406    637.52812   0.80122619     -233.828    2510.5507 
10666000    296.02441     91361.94    139.64861   0.80123028   -224.88795    2531.7064 
10667000    297.39882    91361.473   -121.13226   0.80123437   -162.98292      2606.41 
10668000    296.45025    91361.006   -182.49353   0.80123846   -266.01487    2494.5449 
10669000    287.11109     91360.54    1087.2629   0.80124255   -274.46716    2399.1258 
10670000    297.28959    91360.073   -197.44223   0.80124665    -301.2038    2467.1719 
10671000    293.84607    91359.607    242.15462   0.80125074   -264.56671    2471.7428 
10672000    293.75937     91359.14    914.57303   0.80125483   -321.61687    2413.8853 
10673000    298.84465    91358.674    35.841451   0.80125892   -180.15445    2602.7021 
10674000    295.00782    91358.207   -685.91673   0.80126301   -273.23827    2473.8895 
10675000    294.12737    91357.741    611.36814   0.80126711   -310.75621    2428.1728 
10676000    282.51504    91357.274   -1023.9151    0.8012712   -242.63869    2388.1557 
10677000    294.13295    91356.807    1386.3261   0.80127529   -273.42698    2465.5539 
10678000    290.43213    91356.341    172.20863   0.80127938   -352.44512    2352.0736 
10679000    297.01624    91355.874   -83.206946   0.80128347   -311.96957    2453.8607 
10680000    284.48957    91355.408    300.38494   0.80128757   -277.73964    2371.4416 
10681000    294.22415    91354.941    680.08167   0.80129166   -235.31136    2504.5188 
10682000    293.69883    91354.475    346.19844   0.80129575   -241.24573    2493.6927 
10683000    291.76612    91354.008   -314.89052   0.80129984   -223.92526    2493.0157 
10684000    297.52578    91353.542    1020.2064   0.80130393   -257.76929    2512.8058 
10685000    297.05338    91353.075    174.37185   0.80130803   -262.96324    2503.2129 
10686000    286.35313    91352.609   -98.932702   0.80131212   -319.50602    2347.0288 
10687000    290.84826    91352.142    5.6631816   0.80131621   -270.44892    2437.9448 
10688000    289.72425    91351.676    307.48141    0.8013203   -337.80172    2360.1252 
10689000    292.26836    91351.209    25.883125    0.8013244   -282.32247    2439.2953 
10690000    297.77292    91350.743    895.52978   0.80132849   -275.90723    2496.9693 
10691000    288.35119    91350.276    298.84009   0.80133258   -231.52286     2453.618 
10692000    294.83004     91349.81    214.60116   0.80133667    -325.2969    2420.1753 
10693000    288.54121    91349.343    405.58692   0.80134076   -360.45946    2326.4509 
10694000    294.59428    91348.876    1212.9822   0.80134486   -299.33889    2443.9379 
10695000    284.20593     91348.41   -701.81241   0.80134895   -343.10803     2303.432 
10696000    299.23988    91347.943    221.39906   0.80135304   -209.43138    2577.1055 
10697000    295.33536    91347.477   -206.07754   0.80135713   -245.92961    2504.2482 
10698000    303.00799     91347.01    363.94495   0.80136123    -241.1376    2580.4881 
10699000    294.25801    91346.544   -58.966134   0.80136532   -286.66845     2453.477 
10700000    288.68351    91346.077   -3.4949341   0.80136941   -263.81626    2424.4192 
10701000     296.0341    91345.611   -191.52907   0.80137351   -259.82654     2496.858 
10702000    295.74597    91345.144    1602.0001    0.8013776   -240.05902    2513.9424 
10703000    298.23238    91344.678    143.69232   0.80138169   -261.83792    2515.3171 
10704000    297.04543    91344.211    109.31214   0.80138578   -314.85326    2451.2489 
10705000    296.08863    91343.745   -241.35855   0.80138988   -202.91914    2554.2732 
10706000    293.61709    91343.278    209.37759   0.80139397   -254.21868    2479.9585 
10707000    291.82464    91342.812    658.83616   0.80139806   -292.40195    2425.0839 
10708000     288.7562    91342.345    295.16652   0.80140215    -247.6481    2441.2643 
10709000    288.25617    91341.879   -34.983833   0.80140625   -246.90689    2437.3492 
10710000    295.30605    91341.412   -325.75618   0.80141034   -305.44816    2444.4567 
10711000    298.71179    91340.946    264.84815   0.80141443     -306.961    2474.6583 
10712000    289.34484    91340.479    224.82925   0.80141853   -261.13755    2433.2562 
10713000    290.34645    91340.013    651.53142   0.80142262   -274.40123    2429.3196 
10714000    291.77376    91339.546    243.21858   0.80142671   -293.98062    2423.0314 
10715000    289.39634     91339.08    453.36241    0.8014308   -248.87724    2445.9961 
10716000    290.29349    91338.614    711.14383    0.8014349   -262.81187    2440.4158 
10717000     290.8388    91338.147    20.683389   0.80143899   -259.32104    2448.9846 
10718000    287.82265    91337.681    -443.5462   0.80144308   -286.19708     2394.022 
10719000    294.60428    91337.214    578.22002   0.80144718   -331.58565    2411.7843 
10720000    296.70504    91336.748    1112.5981   0.80145127   -271.49432    2491.4381 
10721000    295.99709    91336.281    287.77083   0.80145536   -263.10834    2493.2315 
10722000    294.70054    91335.815   -214.43362   0.80145946   -254.85003    2489.4164 
10723000    291.79503    91335.348    306.48521   0.80146355   -264.06953    2453.1406 
10724000    297.49116    91334.882    531.70162   0.80146764   -315.40934    2454.8434 
10725000    298.33462    91334.415    31.874254   0.80147174   -261.59247    2516.5146 
10726000    288.02711    91333.949     532.5576   0.80147583   -232.32201     2449.801 
10727000     289.4429    91333.482    981.66235   0.80147992   -181.31507    2513.9918 
10728000    299.72481    91333.016    488.25292   0.80148402   -206.79021    2584.2624 
10729000    290.93789    91332.549    179.26766   0.80148811   -192.46234     2516.766 
10730000    291.53653    91332.083    308.29595    0.8014922   -279.32117    2435.4817 
10731000    289.24002    91331.616    1024.9098    0.8014963   -268.78943    2424.6283 
10732000    292.34487     91331.15    1209.6496   0.80150039   -266.94981    2455.3804 
10733000    288.34737    91330.684   -27.591093   0.80150448   -233.55811    2451.5472 
10734000    294.58486    91330.217    146.46016   0.80150858   -223.78682    2519.4023 
10735000    299.27306    91329.751    571.83845   0.80151267   -208.09228    2578.7536 
10736000    294.05768    91329.284    903.25918   0.80151676   -267.12231    2471.1576 
10737000    289.86228    91328.818   -875.14584   0.80152086    -211.3458    2487.8664 
10738000    296.65501    91328.351    659.77428   0.80152495   -243.16675    2519.2997 
10739000    286.26448    91327.885    853.61295   0.80152905   -184.43751    2481.2719 
10740000    293.87796    91327.418    267.39009   0.80153314   -224.07999    2512.5264 
10741000    287.83964    91326.952    270.14212   0.80153723   -237.83939    2442.5379 
10742000    292.85837    91326.486     280.5654   0.80154133   -145.98835    2581.1236 
10743000    296.59803    91326.019      100.437   0.80154542   -180.64886     2581.287 
10744000    293.78928    91325.553    1268.7741   0.80154951   -179.03064      2556.75 
10745000    297.23092    91325.086   -290.81762   0.80155361   -240.81432     2527.015 
10746000    290.57972     91324.62    525.20015    0.8015577   -206.41918    2499.4739 
10747000    296.70115    91324.153    -323.8369    0.8015618   -203.35279    2559.5433 
10748000    295.48441    91323.687    156.33272   0.80156589   -304.55216    2447.0136 
10749000    296.09935    91323.221    1066.3619   0.80156998   -238.21291    2519.0792 
10750000    290.11857    91322.754    418.09474   0.80157408   -229.06393    2472.5349 
10751000    298.23375    91322.288   -592.53171   0.80157817    -240.4877    2536.6801 
10752000    291.09746    91321.821    1121.4946   0.80158227   -233.80756    2476.9067 
10753000    290.84758    91321.355    616.47131   0.80158636   -237.56285    2470.8246 
10754000    287.47693    91320.888     66.65784   0.80159045   -176.17872     2500.821 
10755000    291.89142    91320.422    274.61338   0.80159455   -318.08928    2400.0184 
10756000    296.77003    91319.956    196.20219   0.80159864   -265.36551     2498.172 
10757000    287.90437    91319.489    329.97518   0.80160274    -261.7687    2419.2114 
10758000    300.59458    91319.023    957.52501   0.80160683   -268.75404    2530.3979 
10759000    294.43103    91318.556   -182.17308   0.80161092   -228.41808    2513.3386 
10760000     290.0316     91318.09    1021.0978   0.80161502    -281.7833    2419.0057 
10761000    288.08018    91317.623    676.91237   0.80161911   -225.06626     2457.551 
10762000    292.85394    91317.157    282.79559   0.80162321   -311.20454    2415.8662 
10763000     295.9064    91316.691    95.282018    0.8016273   -334.31843    2421.1769 
10764000    291.99493    91316.224    268.45605    0.8016314   -254.98533    2464.0862 
10765000    292.54232    91315.758    15.886291   0.80163549   -302.52958    2421.6393 
10766000    295.66247    91315.291    733.18917   0.80163959   -264.36479    2488.8591 
10767000    288.44504    91314.825    525.86406   0.80164368   -218.89935    2467.1154 
10768000    295.76687    91314.359    550.30489   0.80164777      -261.31    2492.8861 
10769000     297.3511    91313.892    210.37355   0.80165187   -289.52861    2479.4199 
10770000    286.94004    91313.426   -46.237319   0.80165596   -263.58909    2408.4111 
10771000    293.74643    91312.959   -363.29533   0.80166006   -277.27664     2458.105 
10772000     294.1439    91312.493    434.07239   0.80166415    -216.8642    2522.2187 
10773000    291.56491    91312.027   -317.62462   0.80166825   -273.12865    2441.9386 
10774000      292.777     91311.56    403.54304   0.80167234   -292.23834    2434.1159 
10775000    295.69434    91311.094    417.42813   0.80167644   -303.85155    2449.6691 
10776000    294.49163    91310.628    887.93245   0.80168053   -202.34646    2539.9745 
10777000    292.55505    91310.161    -199.0456   0.80168463   -263.88598    2460.4014 
10778000    294.37552    91309.695    451.09518   0.80168872    -307.2564    2433.9834 
10779000    292.54872    91309.228    312.32701   0.80169282   -276.88797    2447.3405 
10780000    298.14536    91308.762   -332.70462   0.80169691   -244.41297    2531.9317 
10781000    297.87138    91308.296    337.90779   0.80170101   -274.42276    2499.3706 
10782000    296.65444    91307.829    1076.1661    0.8017051   -183.76106    2578.7001 
10783000    293.52897    91307.363    530.74642   0.80170919   -251.28929    2482.0674 
10784000    283.01337    91306.897    378.70715   0.80171329   -211.04137    2424.3934 
10785000     298.2868     91306.43    66.284892   0.80171738   -254.39768    2523.2641 
10786000    286.28992    91305.964    771.60719   0.80172148   -246.84014    2419.1061 
10787000    298.04646    91305.497    -815.2009   0.80172557    -225.9261    2549.4976 
10788000    289.87993    91305.031   -408.37266   0.80172967   -232.08433    2467.2922 
10789000    295.56238    91304.565    402.54854   0.80173377   -237.51683     2514.775 
10790000    293.78719    91304.098    338.74207   0.80173786   -187.57563    2548.1856 
10791000    294.26143    91303.632    789.27953   0.80174196   -222.55858    2517.6188 
10792000    294.31748    91303.166    439.48182   0.80174605   -278.54489    2462.1544 
10793000    294.30797    91302.699    199.23081   0.80175015   -288.18685    2452.4239 
10794000    294.04978    91302.233    17.297442   0.80175424   -293.28719    2444.9193 
10795000    294.89049    91301.767    25.721549   0.80175834   -307.12562    2438.9095 
10796000    295.41195      91301.3    611.29796   0.80176243   -275.99591    2474.8951 
10797000    295.74873    91300.834    70.543227   0.80176653   -321.57255    2432.4546 
10798000    291.41698    91300.367    383.05332   0.80177062    -238.9027     2474.787 
10799000    299.22093    91299.901    42.107859   0.80177472    -185.5141    2600.8464 
10800000    290.01997    91299.435   -371.17078   0.80177881    -223.3701    2477.3105 
10801000    301.60999    91298.968   -165.06659   0.80178291   -232.69631    2575.9111 
10802000    287.14451    91298.502    315.66092     0.801787   -230.73361    2443.1706 
10803000    290.48477    91298.036    615.17009    0.8017911   -274.15205    2430.8568 
10804000    295.17923    91297.569    82.111734   0.80179519   -244.89719    2503.8267 
10805000    297.37577    91297.103    567.20596   0.80179929   -222.06486    2547.1134 
10806000    296.43121    91296.637     181.8919   0.80180339   -303.27838    2457.1041 
10807000     292.4801     91296.17    8.0955385   0.80180748   -290.10935    2433.4801 
10808000    304.06455    91295.704    1430.3817   0.80181158   -286.95001    2544.5145 
10809000    295.97832    91295.238   -213.85347   0.80181567   -171.32768    2584.8374 
10810000    297.23323    91294.771    184.00937   0.80181977   -251.75177    2516.0991 
10811000    300.84904    91294.305    1320.7983   0.80182386   -234.88569    2566.6358 
10812000    296.90601    91293.839    254.78944   0.80182796   -229.76838    2535.0354 
10813000    290.15869    91293.372    115.03624   0.80183206   -204.00638     2497.966 
10814000     294.8384    91292.906    1100.2128   0.80183615   -269.97447    2475.5756 
10815000    295.62868     91292.44   -275.73069   0.80184025   -284.85903    2468.0502 
10816000    291.79245    91291.973    669.88073   0.80184434   -159.18285    2558.0032 
10817000    295.59542    91291.507     157.9992   0.80184844   -232.76657     2519.833 
10818000     294.8657    91291.041    213.10373   0.80185253    -200.5895    2545.2148 
10819000    291.71091    91290.574    159.13762   0.80185663   -145.26151    2571.1652 
10820000    290.97035    91290.108   -239.21816   0.80186073   -158.36643    2551.1642 
10821000    291.89043    91289.642   -375.81862   0.80186482   -106.19023    2611.9082 
10822000    290.51848    91289.175    7.0414536   0.80186892   -100.08083    2605.2419 
10823000    288.35452    91288.709   -202.53715   0.80187301   -178.69924    2506.4726 
10824000    291.19739    91288.243    631.13493   0.80187711   -177.83951    2533.8053 
10825000     290.9332    91287.777   -105.90213   0.80188121   -243.53247    2465.6522 
10826000    299.14149     91287.31    10.989501    0.8018853   -193.30668     2592.314 
10827000    290.76821    91286.844     472.2023    0.8018894   -236.31675    2471.3316 
10828000    289.31681    91286.378    75.273645   0.80189349   -211.86508    2482.2676 
10829000    292.27513    91285.911    714.06234   0.80189759   -267.21665    2454.4641 
10830000    292.17104    91285.445    414.48405   0.80190169   -225.91829    2494.7932 
10831000    288.30578    91284.979   -540.53995   0.80190578   -296.99475    2387.7233 
10832000    293.04421    91284.512    40.648747   0.80190988   -242.42242    2486.4201 
10833000    291.29161    91284.046   -278.93871   0.80191398    -188.8628    2523.6594 
10834000       291.66     91283.58    488.28302   0.80191807   -224.41262      2491.54 
10835000    290.87807    91283.114     296.5499   0.80192217   -157.47788    2551.1934 
10836000    282.44707    91282.647   -591.52924   0.80192627   -193.06145       2437.1 
10837000    295.41969    91282.181    886.35562   0.80193036   -204.11479    2546.8483 
10838000    293.06312    91281.715    950.44827   0.80193446   -184.36046    2544.6582 
10839000    292.40947    91281.248   -103.79067   0.80193855   -183.76991    2539.1618 
10840000    286.18656    91280.782    -764.7928   0.80194265   -176.51992    2488.4638 
10841000    286.73674    91280.316   -272.68197   0.80194675   -173.51049    2496.5966 
10842000    302.23343     91279.85   -562.77669   0.80195084   -146.76488    2667.6481 
10843000    296.32258    91279.383   -376.88104   0.80195494   -224.34141    2535.0294 
10844000    289.75193    91278.917    242.88816   0.80195904   -147.91502    2550.2696 
10845000    298.37549    91278.451    930.36188   0.80196313   -186.13704    2592.3506 
10846000    297.33559    91277.984   -630.12434   0.80196723   -190.47153    2578.3326 
10847000    295.59866    91277.518   -4.2324093   0.80197133   -231.15785    2521.4718 
10848000     293.0224    91277.052    158.43846   0.80197542   -251.98688    2476.6525 
10849000    294.95758    91276.586    96.435399   0.80197952   -160.10324    2586.5567 
10850000     291.3993    91276.119    395.16745   0.80198362    -147.5717    2565.9533 
10851000    291.13219    91275.653    -315.1909   0.80198771   -245.00254    2466.0351 
10852000    287.99877    91275.187    1068.6127   0.80199181   -159.17981    2522.6793 
10853000    289.39991    91274.721   -761.70293   0.80199591   -233.79802    2461.1085 
10854000    291.90066    91274.254    122.23568        0.802   -266.80746    2451.3862 
10855000    293.11589    91273.788    11.848884    0.8020041   -288.57732    2440.9326 
10856000    295.20478    91273.322   -147.30509    0.8020082   -195.02849    2553.9333 
10857000    293.89501    91272.856    899.33292    0.8020123   -182.82452    2553.9407 
10858000    291.81535    91272.389   -540.93997   0.80201639     -244.136    2473.2633 
10859000    297.91149    91271.923    397.78633   0.80202049   -210.33761    2563.8293 
10860000    295.22051    91271.457    764.03131   0.80202459   -202.81005    2546.2982 
10861000    283.92275    91270.991   -421.69488   0.80202868   -103.09384    2540.8092 
10862000    298.50168    91270.524   -7.7148252   0.80203278   -213.74421    2565.9185 
10863000     296.4135    91270.058    796.39581   0.80203688   -221.50915    2538.7084 
10864000    288.02533    91269.592   -147.91957   0.80204098   -229.44302    2452.6634 
10865000    295.53429    91269.126     278.1246   0.80204507    -214.9876    2537.0427 
10866000    295.36403    91268.659    207.24123   0.80204917    -214.3828     2536.062 
10867000    294.08506    91268.193    28.479107   0.80205327     -212.116    2526.4189 
10868000    291.55573    91267.727   -89.765812   0.80205736   -186.88426    2528.0974 
10869000    290.27544    91267.261    356.60566   0.80206146   -278.31698    2424.7427 
10870000    292.51187    91266.794    923.17173   0.80206556   -282.01646    2441.8688 
10871000    292.35923    91266.328    245.28951   0.80206966   -316.02846    2406.4355 
10872000    300.23993    91265.862    516.63797   0.80207375   -334.28828    2461.5611 
10873000    296.86943    91265.396    67.172556   0.80207785   -259.89085    2504.5723 
10874000    295.60716    91264.929    365.43824   0.80208195   -196.24569    2556.4631 
10875000    297.66467    91264.463    -438.4232   0.80208605   -239.87281    2531.9957 
10876000    292.52059    91263.997   -132.27223   0.80209014   -246.86575    2477.1007 
10877000    292.91824    91263.531    62.029841   0.80209424   -216.15294    2511.5165 
10878000    292.49554    91263.064    500.41137   0.80209834   -231.12654    2492.6067 
10879000    288.23889    91262.598     263.9316   0.80210244   -247.45335    2436.6418 
10880000     292.4232    91262.132    981.49743   0.80210653   -188.95257    2534.1071 
10881000     292.1771    91261.666   -643.51347   0.80211063   -251.70102    2469.0669 
10882000    295.74649      91261.2    654.55529   0.80211473   -272.34879    2481.6575 
10883000    292.31842    91260.733   -674.32957   0.80211883   -231.29916    2490.7848 
10884000    291.71285    91260.267    1136.0417   0.80212292   -275.36951    2441.0753 
10885000     299.9623    91259.801    268.04404   0.80212702   -221.23028    2572.0338 
10886000    304.71291    91259.335    422.44673   0.80213112   -276.55948    2560.9425 
10887000      288.463    91258.869   -364.95482   0.80213522   -264.98185    2421.2002 
[...]
11070000    285.07233    93251.214    281.15076   0.78499731   -135.36101    2519.2469 
11080000     289.2517    93637.325    670.02368    0.7817604   -112.73528    2580.7912 
11090000    290.26572    93431.475   -1318.6277   0.78348279    -246.4089    2456.5601 
11100000    299.41583    93652.845   -448.87213   0.78163084    -112.7405    2675.4349 
11110000    302.11766    94042.907   -330.10689   0.77838887   -69.619055    2743.7159 
11120000    294.28306    93508.805    29.251592   0.78283487   -180.11732    2560.2614 
11130000    292.83339    93940.573    -248.5908   0.77923681   -110.62343    2616.2559 
11140000    288.26496    93882.361    949.34676   0.77971998   -108.47725    2575.8607 
11150000    297.44889    93708.525    166.42572   0.78116641    -124.0768    2645.7823 
11160000     285.3126    93162.833      195.554   0.78574201   -81.467531    2575.3778 
11170000    292.90799    94405.044    162.59771   0.77540298   -129.55613    2598.0179 
11180000    289.11811     93851.69    1417.9146   0.77997479   -143.37977    2548.9027 
11190000    289.85109    93987.798   -178.57814   0.77884527   -115.47335    2583.6347 
11200000    296.84488    94063.432     41.14053   0.77821902   -188.75034    2575.4842 
11210000    298.86345     93603.72   -60.666234   0.78204106   -225.91469    2557.1169 
11220000    299.55139    94140.647    479.30891   0.77758072   -164.51535    2624.9223 
11230000    299.16141     93573.45    159.14551   0.78229404   -29.035279    2756.7709 
11240000    291.47428    94701.261   -616.93792   0.77297759   -132.06458    2582.1586 
11250000    296.64314    93562.241   -80.641473   0.78238776   -113.74326    2648.6127 
11260000    290.60256    94000.197    995.88959   0.77874254    -158.9099    2547.1958 
11270000     294.0987    95136.792   -507.22756   0.76943894   -26.440352    2712.2216 
11280000    295.40324    94255.151    -323.9174    0.7766361   -150.79444    2600.0155 
11290000     291.8688     93437.56    223.49321   0.78343176   -149.35189    2568.5451 
11300000    296.49602    94587.975    39.623137   0.77390337     -101.725     2659.261 
11310000     293.1335    94483.441   -342.62515   0.77475959   -183.42788    2546.2461 
11320000    289.11764    94801.609   -280.11636   0.77215938   -125.37442    2566.9037 
11330000    286.38956    93943.799    253.59448   0.77921005   -91.588827    2575.2852 
11340000    287.48695    93529.292    149.25419   0.78266339    -111.7944    2565.2986 
11350000    296.71243    94401.261   -346.10566   0.77543406   -119.07867    2643.9225 
11360000    286.16267    94126.673    549.49046   0.77769617   -106.28461    2558.4766 
11370000    290.95737    94197.408   -143.85291   0.77711217   -190.46071     2518.949 
11380000    297.48651    93820.795   -443.51411   0.78023164   -110.52627    2659.6831 
11390000     297.4322    93928.744   -813.03051   0.77933494   -164.26132    2605.4423 
11400000    290.26005    93616.529     -155.746   0.78193406   -105.15851    2597.7577 
11410000    297.18879    93375.231    914.26925   0.78395471   -139.57781    2627.8592 
11420000    287.04449    92579.667    534.40382   0.79069146   -166.41632    2506.5565 
11430000     292.4938    93694.567   -337.32322   0.78128279   -164.66479    2559.0523 
11440000    291.44543    93245.465   -65.466327   0.78504571   -130.97346    2582.9811 
11450000     296.2684    92830.934    159.66398   0.78855128   -188.13283    2570.7335 
11460000     290.1251    94748.164   -519.54315   0.77259494   -56.468536    2645.1911 
11470000    285.58898     94321.67    101.93852   0.77608838   -173.16461    2486.2544 
11480000    295.51906     93538.25    236.30119   0.78258843   -187.31946     2564.569 
11490000    292.93115    94214.391    460.67405   0.77697209   -139.07769     2588.712 
11500000    291.65111    93598.852    165.11216   0.78208174   -204.91388     2510.956 
11510000    298.41158    93552.107    -578.4918   0.78247252   -242.72663    2536.0971 
11520000    287.54286    93739.796   -191.35419   0.78090582   -153.17644    2524.4372 
11530000    290.77308    94890.569   -727.64172   0.77143549   -154.69549    2552.9981 
11540000    293.72382    92714.818   -552.87822   0.78953887   -83.388832    2651.7823 
11550000    287.45681    93015.074   -379.12153    0.7869902   -157.80708    2519.0053 
11560000    287.13752    94407.974    67.239997   0.77537891   -201.10324    2472.7359 
11570000    291.17527    93660.157    610.93131   0.78156982    -222.7131    2488.7257 
11580000    296.04835    92201.454   -714.41276    0.7939349   -224.77958    2532.0376 
11590000     290.6481    94248.753    465.60415   0.77668881   -148.29445    2558.2353 
11600000    284.24932    92991.317   -264.67516   0.78719126   -229.70845    2417.2356 
11610000    291.69782    94095.782   -218.02709   0.77795148   -141.63209    2574.6728 
11620000    300.63367    93199.518     673.5617   0.78543273   -171.24571    2628.2702 
11630000    294.57979    93592.641    746.11462   0.78213363    -112.3121    2630.8298 
11640000    291.99248    94771.144    664.00072    0.7724076   -99.245151    2619.8036 
11650000    296.12053    94109.879    203.77464   0.77783494   -143.71144    2613.7779 
11660000    299.22546    93737.753    1061.6686   0.78092284   -113.29986    2673.1028 
11670000     296.2392    93492.741    244.07823   0.78296937   -64.470237    2694.1242 
11680000    298.04675     92992.79   -128.43139   0.78717879   -180.09998    2595.3264 
11690000    286.47966    94553.515    509.92435   0.77418542   -149.70125    2518.0119 
11700000    295.28019    92933.211    313.37986   0.78768345   -227.33263    2522.3314 
11710000    297.99529    93607.315    152.83806   0.78201102    -160.6346    2614.3127 
11720000    294.26888    94384.197   -90.534496   0.77557425   -198.11932    2542.1274 
11730000    285.21952    94360.068   -459.45886   0.77577257   -113.64787    2542.3307 
11740000    300.40345    94969.145    471.42677   0.77079721   -118.65295    2678.7191 
11750000    295.47911    93605.386   -805.65006   0.78202714   -157.13321    2594.3832 
11760000    294.76118    93969.382   -425.18109   0.77899792   -82.125434    2662.7056 
11770000    293.86959    93645.637   -239.38286   0.78169101    -162.6284    2573.9001 
11780000    297.45574    93959.586     1102.168   0.77907913   -163.03564    2606.8873 
11790000    293.70529    93641.858   -433.97809   0.78172255   -158.80289    2576.1956 
11800000    299.80573    93871.368    732.32855   0.77981129   -159.15288    2632.6532 
11810000    286.17211    94039.718   -502.99003   0.77841527   -170.81444    2494.0347 
11820000    290.41119     93938.85   -461.39618    0.7792511   -152.28908    2552.0346 
11830000     291.0002    93117.236    -567.8919   0.78612678   -155.45934    2554.3493 
11840000    300.14822    94143.554   -42.869375   0.77755671    -116.5309    2678.4645 
11850000    296.68016    93395.908   -6.1944243   0.78378115   -163.29727    2599.4034 
11860000    294.68488     92385.89    -83.86225   0.79234992   -255.46842    2488.6521 
11870000    289.82184     93723.99   -214.87044   0.78103751   -157.64347    2541.1922 
11880000    283.86808    92770.669    94.228185   0.78906354   -209.30941    2434.0845 
11890000    290.40639    93400.931   -769.42234     0.783739   -269.04621    2435.2328 
11900000    291.96556    92648.717   -424.08385   0.79010217    -210.7702    2508.0278 
11910000    286.59199    92158.153    123.10607   0.79430794   -256.18672    2412.5724 
11920000    301.18448    93475.053   -198.88535   0.78311753   -290.34957    2514.2955 
11930000    292.77201    94240.103    830.09665    0.7767601   -81.408217    2644.8996 
11940000    302.60428     94800.08    114.17631   0.77217184    -166.8344     2651.032 
11950000    296.67258    94583.442   -1032.5089   0.77394046   -156.15272    2606.4774 
11960000    291.70572    94172.283    369.76591    0.7773195   -132.71086    2583.6676 
11970000    286.17132    93373.069    -232.5582   0.78397287   -116.73048    2548.1113 
11980000    289.03451    93805.165   -651.75747   0.78036164   -173.40158    2518.1024 
11990000     292.3211    93469.377   -292.81433   0.78316508   -164.41937    2557.6895 
12000000    290.82746    93006.041    246.30293   0.78706664   -172.05789    2536.1421 
12000378    294.63601     93403.25    468.24588   0.78371955   -236.88952     2506.776 
Loop time of 560.888 on 64 procs for 1000000 steps with 3125 atoms

Performance: 154.041 ns/day, 0.156 hours/ns, 1782.886 timesteps/s
99.6% CPU use with 64 MPI tasks x 1 OpenMP threads

MPI task timing breakdown:
Section |  min time  |  avg time  |  max time  |%varavg| %total
---------------------------------------------------------------
Pair    | 49.242     | 76.162     | 105        | 266.9 | 13.58
Bond    | 11.728     | 15.628     | 19.889     |  75.7 |  2.79
Neigh   | 58.71      | 59.903     | 61.122     |   8.7 | 10.68
Comm    | 207.81     | 241.89     | 276.12     | 166.6 | 43.13
Output  | 0.011794   | 0.05883    | 0.059726   |   2.4 |  0.01
Modify  | 140.03     | 145.43     | 153.93     |  32.1 | 25.93
Other   |            | 21.82      |            |       |  3.89

Nlocal:    48.8281 ave 63 max 37 min
Histogram: 3 4 5 12 10 18 5 6 0 1
Nghost:    1034.41 ave 1067 max 1004 min
Histogram: 3 4 3 13 12 12 9 5 2 1
Neighs:    3596.73 ave 4706 max 2654 min
Histogram: 3 4 5 13 14 11 6 4 3 1

Total # of neighbors = 230191
Ave neighs/atom = 73.6611
Ave special neighs/atom = 5.76
Neighbor list builds = 112701
Dangerous builds = 0
System init for write_restart ...
Setting up Verlet run ...
  Unit style    : real
  Current step  : 12000378
  Time step     : 1
Per MPI rank memory allocation (min/avg/max) = 8.944 | 9.161 | 9.408 Mbytes
Step Temp Volume Press Density PotEng TotEng 
12000378    294.63601     93403.25    468.24588   0.78371955   -236.88952     2506.776 
12010000    287.64555    93405.601    738.29148   0.78369982   -210.96496     2467.605 
12020000    303.18436    93408.045    161.98185   0.78367931   -214.42091    2608.8471 
12030000    291.68392    93410.489    608.16373   0.78365881   -229.32148    2486.8539 
12040000    298.07271    93412.933    125.06896   0.78363831   -82.384746    2693.2834 
12050000    293.30043    93415.377    35.557334    0.7836178   -182.03662    2549.1918 
12060000    295.02308    93417.821     620.5932    0.7835973   -183.00145    2564.2684 
12070000    285.59169    93420.265    279.68821    0.7835768   -182.51674    2476.9275 
12080000     290.2152    93422.709    674.52842    0.7835563   -170.41386    2532.0847 
12090000    288.80594    93425.153   -113.87868    0.7835358   -233.45707    2455.9184 
12100000    295.01379    93427.597    1106.3188    0.7835153   -201.09967    2546.0836 
12110000    291.32141    93430.042   -438.09914   0.78349481   -213.76312    2499.0365 
12120000    295.56083    93432.486    1241.0574   0.78347431   -73.119937    2679.1574 
12130000    300.76901     93434.93   -11.563381   0.78345381   -162.17133    2638.6049 
12140000    291.92361    93437.375    671.43248   0.78343332   -178.92483    2539.4826 
12150000    289.13779    93439.819    198.11597   0.78341282   -208.43368    2484.0321 
12160000    290.49632    93442.264   -60.102385   0.78339233   -158.65491    2546.4615 
12170000    287.61105    93444.708     70.21012   0.78337183   -163.01009    2515.2386 
12180000    295.76855    93447.153    669.95672   0.78335134   -195.22593    2558.9857 
12190000    288.99188    93449.597    386.53562   0.78333085   -245.66419    2445.4428 
12200000    298.62972    93452.042    468.30464   0.78331036   -207.06754    2573.7875 
12210000    291.07694    93454.487    334.24676   0.78328987   -173.19324      2537.33 
12220000    296.27529    93456.931    173.98969   0.78326938   -207.77127    2551.1592 
12230000    301.17027    93459.376    392.75872   0.78324889   -202.91359    2601.5992 
12240000     290.7721    93461.821   -960.99174    0.7832284   -202.06477    2505.6197 
12250000    295.32438    93464.266   -201.29251   0.78320791    -197.4156      2552.66 
12260000    290.42388    93466.711   -138.21084   0.78318743   -238.87511    2465.5668 
12270000    299.02355    93469.156   -51.097421   0.78316694   -187.17386    2597.3486 
12280000    291.76879    93471.601    466.05154   0.78314645   -108.67606    2608.2896 
12290000    291.67918    93474.046   -763.57446   0.78312597   -177.31078    2538.8205 
12300000    294.55303    93476.491    924.41494   0.78310548   -142.18448    2600.7082 
12310000    292.10758    93478.936   -295.10437     0.783085   -201.43628    2518.6843 
12320000    286.11676    93481.381    801.44611   0.78306452   -215.54818    2448.7856 
12330000    287.24354    93483.826     980.1988   0.78304404   -117.69529    2557.1311 
12340000    288.24575    93486.271    700.55953   0.78302355   -185.71419    2498.4448 
12350000    299.50591    93488.717     -258.106   0.78300307   -136.50852    2652.5056 
12360000    293.04621    93491.162   -604.10624   0.78298259   -171.46187    2557.3993 
12370000    301.70549    93493.607    27.236858   0.78296211   -180.06772    2629.4291 
12380000    292.26002    93496.053    839.97605   0.78294164   -186.95759    2534.5825 
12390000    295.05265    93498.498   -13.146937   0.78292116   -213.57875    2533.9665 
12400000    292.78855    93500.944   -62.989289   0.78290068   -181.99481     2544.467 
12410000    292.50982    93503.389    155.02578    0.7828802    -110.2011    2613.6651 
12420000    297.76561    93505.835    83.573121   0.78285973    -173.6794     2599.129 
12430000    291.34934     93508.28   -266.98506   0.78283925   -137.92292    2575.1369 
12440000     303.0883    93510.726   -341.18478   0.78281878   -144.40576    2677.9678 
12450000    297.84548    93513.172   -74.462717   0.78279831   -138.72732    2634.8248 
12460000    302.03856    93515.617    968.30666   0.78277783   -98.507504    2714.0908 
12470000    294.33618    93518.063   -564.91157   0.78275736    -106.6739    2634.1995 
12480000    293.92226    93520.509    515.42945   0.78273689   -160.53465    2576.4843 
12490000    294.51567    93522.955   -351.10183   0.78271642   -42.373907    2700.1709 
12500000    299.95813    93525.401    669.30111   0.78269595   -88.307247     2704.918 
12510000    293.66106    93527.847    304.41596   0.78267548   -88.635451    2645.9512 
12520000    296.22714    93530.293    25.897565   0.78265501   -136.34274    2622.1394 
12530000    295.06586    93532.739   -334.83317   0.78263454   -103.62194    2644.0462 
12540000    295.31176    93535.185   -470.65802   0.78261408     -123.606    2626.3521 
12550000     290.1281    93537.631    360.89424   0.78259361   -191.59918    2510.0884 
12560000    294.39174    93540.077    64.414801   0.78257314   -178.72154    2562.6692 
12570000    295.30135    93542.524    984.48508   0.78255268   -151.66283    2598.1983 
12580000    297.72383     93544.97   -94.406906   0.78253221   -116.34582    2656.0735 
12590000     295.6062    93547.416    249.16284   0.78251175   -176.82625    2575.8737 
12600000    295.75363    93549.862    309.71101   0.78249129     -212.534    2541.5387 
12610000    303.37961    93552.309    349.13157   0.78247083     -159.536    2665.5503 
12620000    295.09648    93554.755    169.94607   0.78245036    -119.3421    2628.6113 
12630000    290.30554    93557.202    -802.2676    0.7824299   -193.36567    2509.9742 
12640000    294.74989    93559.648   -489.22625   0.78240944    -156.6494    2588.0765 
12650000     302.4402    93562.095    282.15205   0.78238898   -231.86247     2584.476 
12660000    294.95383    93564.541    87.146591   0.78236853   -125.98966    2620.6353 
12670000     285.3272    93566.988   -735.44867   0.78234807   -171.67237     2485.309 
12680000    287.29978    93569.435   -618.69374   0.78232761   -125.65826    2549.6918 
12690000    292.86155    93571.881    55.959399   0.78230715   -111.28549    2615.8561 
12700000    280.86658    93574.328    713.51924    0.7822867   -177.05462    2438.3892 
12710000    291.04239    93576.775    175.83766   0.78226624   -162.72327    2547.4782 
12720000    292.10044    93579.222     319.3757   0.78224579   -176.30268    2543.7514 
12730000     290.1111    93581.669    215.68971   0.78222534   -219.13088    2482.3983 
12740000    292.77295    93584.116    121.03705   0.78220488   -214.89314    2511.4234 
12750000    293.64497    93586.563   -147.53419   0.78218443   -202.94734    2531.4895 
12760000     288.7661     93589.01      195.262   0.78216398   -162.92316    2526.0814 
12770000    293.75009    93591.457    203.92058   0.78214353   -178.76117    2556.6545 
12780000    300.63978    93593.904   -245.86367   0.78212308   -225.59578    2573.9771 
12790000    300.28102    93596.351    702.09994   0.78210263   -88.058427    2708.1736 
12800000    291.51526    93598.798    82.687578   0.78208218   -194.90488       2519.7 
12810000    289.50893    93601.246   -186.14365   0.78206173   -187.10924    2508.8126 
12820000    293.50755    93603.693   -380.71958   0.78204129   -110.41974    2622.7375 
12830000    295.66366     93606.14    581.95513   0.78202084   -104.40681    2648.8281 
12840000    297.90789    93608.588    413.90932   0.78200039   -104.06701    2670.0663 
12850000    300.14212    93611.035   -68.578614   0.78197995   -60.177071    2734.7615 
12860000    290.76159    93613.482    1263.7056   0.78195951   -78.428515    2629.1581 
12870000    301.08008     93615.93   -604.86496   0.78193906   -204.59944    2599.0735 
12880000    288.02307    93618.377   -661.51148   0.78191862   -225.27419    2456.8112 
12890000    290.81954    93620.825   -59.219355   0.78189818   -146.80255    2561.3237 
12900000    299.55655    93623.273    213.53709   0.78187774   -137.16869    2652.3171 
12910000    287.98602     93625.72   -652.80469   0.78185729   -131.35758    2550.3828 
12920000    296.03019    93628.168    178.81283   0.78183685   -221.47428    2535.1738 
12930000    294.53863    93630.616    605.89793   0.78181642    -165.2292    2577.5294 
12940000     293.7791    93633.064    705.10094   0.78179598   -155.05347    2580.6324 
12950000    293.61171    93635.511    95.205932   0.78177554   -87.755479    2646.3716 
12960000    298.70702    93637.959     197.6479    0.7817551   -164.19176    2617.3831 
12970000    292.49149    93640.407   -728.20679   0.78173466   -242.00452    2481.6911 
12980000    294.98887    93642.855    381.10845   0.78171423   -186.11629     2560.835 
12990000    300.22522    93645.303    551.26338   0.78169379   -135.03095    2660.6815 
13000000    290.42809    93647.751    269.29177   0.78167336   -203.04606     2501.435 
13000378    286.57387    93647.844   -157.13744   0.78167259   -188.60115    2479.9892 
Loop time of 483.145 on 64 procs for 1000000 steps with 3125 atoms

Performance: 178.828 ns/day, 0.134 hours/ns, 2069.770 timesteps/s
99.5% CPU use with 64 MPI tasks x 1 OpenMP threads

MPI task timing breakdown:
Section |  min time  |  avg time  |  max time  |%varavg| %total
---------------------------------------------------------------
Pair    | 42.846     | 71.744     | 103.61     | 264.0 | 14.85
Bond    | 7.8022     | 13.453     | 19.155     |  76.6 |  2.78
Neigh   | 56.247     | 57.363     | 58.583     |   9.2 | 11.87
Comm    | 209.22     | 243.53     | 280.08     | 158.3 | 50.40
Output  | 0.011978   | 0.059771   | 0.06063    |   2.5 |  0.01
Modify  | 26.613     | 28.187     | 30.155     |  17.7 |  5.83
Other   |            | 68.81      |            |       | 14.24

Nlocal:    48.8281 ave 61 max 38 min
Histogram: 2 4 10 10 8 14 8 3 4 1
Nghost:    1038.75 ave 1067 max 1010 min
Histogram: 3 3 10 7 9 9 5 9 5 4
Neighs:    3581.8 ave 4539 max 2632 min
Histogram: 2 3 10 6 7 14 9 6 6 1

Total # of neighbors = 229235
Ave neighs/atom = 73.3552
Ave special neighs/atom = 5.76
Neighbor list builds = 109045
Dangerous builds = 0
System init for write_restart ...
Total wall time: 0:25:34
