ITEM: TIMESTEP
600000000
ITEM: NUMBER OF ATOMS
3750
ITEM: BOX BOUNDS xy xz yz pp pp pp
1.1125092653907163e+02 1.5874907346092786e+02 0.0000000000000000e+00
1.1125092653907163e+02 1.5874907346092786e+02 0.0000000000000000e+00
1.1125092653907163e+02 1.5874907346092786e+02 0.0000000000000000e+00
ITEM: ATOMS id mol type mass xu yu zu vx vy vz 
3717 124 1 14.026 -12282 -4486.65 5625.25 -0.002636 -0.00129588 0.00496525 
3060 102 2 15.034 -11476.7 -4442.4 5622.76 3.82531e-05 0.00672656 -0.00397666 
2041 69 2 15.034 -12135.5 -4492.76 5719.27 0.00153369 -0.00236934 -0.000752203 
3058 102 4 13.018 -11475.9 -4443.5 5622.06 -0.00168146 -0.00170782 0.00526996 
3720 124 2 15.034 -12279.7 -4487.96 5624.96 -0.00271852 -0.00325436 -0.00160731 
3610 121 1 14.026 -10429.1 -4400.67 5625.91 -0.00699053 0.00254568 0.00162802 
3718 124 4 13.018 -12280.7 -4486.88 5624.46 -0.00243731 0.00620599 -0.00551743 
3614 121 1 14.026 -10430.7 -4400.79 5623.08 0.000145291 0.00326121 -0.00104002 
3716 124 1 14.026 -12281.6 -4486.09 5626.63 0.000930439 0.00820242 0.00197269 
3719 124 3 15.034 -12280.6 -4486.84 5622.94 -0.00695989 -0.00296193 0.00259691 
3613 121 3 15.034 -10428.3 -4400.87 5622.07 -0.00260853 -0.003174 -0.00275035 
3612 121 4 13.018 -10429.2 -4400.91 5623.34 -0.00276796 -0.00647158 -0.00151601 
3611 121 1 14.026 -10428.7 -4400.12 5624.52 -0.00291625 -0.00136454 -0.00678915 
3057 102 1 14.026 -11474.7 -4442.95 5621.31 -0.00610767 0.000167553 -0.00514956 
3059 102 3 15.034 -11476.8 -4444.43 5621.19 -0.00114246 -0.00203552 0.00541991 
181 7 2 15.034 -13519 -4537.73 5531.97 0.00233869 0.00392919 -0.000995182 
184 7 1 14.026 -13518 -4538.23 5534.4 -0.0084625 0.00764164 0.00188166 
185 7 1 14.026 -13519.3 -4538.83 5534.99 -0.0062895 0.000797843 -0.00733489 
3712 124 1 14.026 -12283.4 -4484.65 5629.77 -0.00802531 0.00647084 -0.000152852 
3711 124 1 14.026 -12284.1 -4485.93 5630.1 -0.00255118 -0.00119328 0.00462774 
3710 124 1 14.026 -12285.2 -4485.82 5631.15 -0.00467379 -0.0002355 0.00539288 
1142 39 4 13.018 -11660.5 -4491.23 5537.24 -0.00211252 -0.00809569 0.00305896 
3607 121 4 13.018 -10428.7 -4400.5 5628.36 -0.00611723 0.00179532 0.00823646 
1141 39 2 15.034 -11661.9 -4491.31 5536.52 0.00143709 0.000839379 -0.00207189 
3608 121 3 15.034 -10428.3 -4399.5 5629.51 -0.00450101 -0.0028917 -0.000842614 
186 7 1 14.026 -13519.3 -4538.75 5536.54 -0.0072563 0.000445237 0.00180921 
2853 96 3 15.034 -11003 -4447.44 5675.66 -0.00325318 -0.0007203 -0.00719011 
182 7 4 13.018 -13517.9 -4538.36 5532.86 0.00047359 -0.00476739 0.00681682 
3715 124 1 14.026 -12282.8 -4485.87 5627.56 -0.000650002 0.00215478 0.00749755 
183 7 3 15.034 -13516.5 -4537.95 5532.45 -0.0006859 0.00562448 0.00519498 
3713 124 4 13.018 -12282.3 -4484.98 5628.7 -0.00135357 -0.00193137 -0.00177896 
187 7 4 13.018 -13520.2 -4539.75 5537.25 -0.00247458 -0.00161157 -0.00317041 
1233 42 3 15.034 -10949.7 -4439.59 5678.73 -0.00148173 -0.0012601 -0.00305561 
1232 42 4 13.018 -10948.5 -4438.9 5679.41 0.00197869 -0.00241138 -0.0022803 
3609 121 1 14.026 -10428.6 -4399.77 5626.99 -0.00414403 -0.00306597 0.00366153 
2139 72 1 14.026 -10237.6 -4399.36 5589.36 -0.00230245 0.00287538 0.00293252 
3295 110 1 14.026 -10811.9 -4437.57 5638.46 -0.00246392 -0.00211181 0.00237705 
2137 72 4 13.018 -10238.9 -4399.64 5588.67 -0.00893205 -0.000856148 -0.000137671 
1143 39 3 15.034 -11660.5 -4490.92 5538.8 6.51357e-05 0.00401869 0.00225421 
2125 71 1 14.026 -9953.29 -4390.52 5684.28 -0.00807083 0.00138651 0.00392338 
3294 110 3 15.034 -10813.2 -4438.97 5636.74 -0.000957712 0.0012503 0.00918898 
189 7 1 14.026 -13519.9 -4539.84 5538.76 -0.00132769 -0.000954106 -0.00263007 
2138 72 3 15.034 -10240.1 -4399.2 5589.52 0.00143861 0.00221112 -0.00106906 
2140 72 1 14.026 -10236.5 -4399.84 5588.42 -0.0075562 -0.00313983 -0.0100246 
1231 42 2 15.034 -10947.9 -4439.76 5680.51 0.00164096 -0.00288169 0.00300916 
2124 71 3 15.034 -9951.01 -4391.23 5684.73 -0.00659777 -0.00301161 -0.00482352 
3293 110 4 13.018 -10812.8 -4437.53 5637.2 0.000993697 0.00206435 -0.00315196 
2123 71 4 13.018 -9951.84 -4390.04 5684.36 0.00131485 -0.0019032 0.000768579 
2126 71 1 14.026 -9953.66 -4391.6 5683.21 -0.00459648 0.00448852 0.000645245 
2130 71 2 15.034 -9954.53 -4394.8 5682.64 -0.000804517 -0.00601791 0.00284275 
1533 52 3 15.034 -11050.5 -4442.19 5591.17 -0.00160644 0.0062666 0.00254734 
2129 71 3 15.034 -9955.27 -4393.14 5680.8 -0.00432635 -0.00352771 0.00346478 
2128 71 4 13.018 -9955.23 -4393.49 5682.3 0.00472647 -0.0053104 0.00467685 
2127 71 1 14.026 -9955 -4392.41 5683.42 -0.00500927 -0.00133359 -0.00226734 
2122 71 1 14.026 -9951.17 -4389.24 5683.22 -0.00736299 -0.00789671 0.00803054 
1536 52 1 14.026 -11045.9 -4441.2 5592.39 0.00304704 -0.00427454 -0.00219229 
1532 52 4 13.018 -11049.9 -4441.91 5592.54 -0.00928375 0.00169892 0.00241021 
56 2 1 14.026 -10046.6 -4391.09 5644.75 -0.00561482 -0.00128579 0.00528465 
1534 52 1 14.026 -11048.6 -4441.11 5592.51 -0.00228812 0.00152032 -0.00332046 
1622 55 4 13.018 -10242.1 -4399.81 5644.43 -0.00469123 0.003762 0.000446147 
1983 67 3 15.034 -11519.3 -4448.52 5644.4 -0.00801691 0.00498668 -0.00055794 
46 2 1 14.026 -10048 -4399.56 5641.17 -0.00499909 0.00214057 -0.0014887 
1621 55 2 15.034 -10240.7 -4400.43 5644.7 7.52096e-05 -0.00210253 0.00661886 
1531 52 2 15.034 -11049.8 -4443.2 5593.46 -0.00427005 0.00292929 0.00527136 
48 2 4 13.018 -10048.1 -4397.3 5642.49 -0.00645945 0.00629908 -0.0011953 
57 2 1 14.026 -10046.2 -4390.52 5643.41 -0.00150273 0.00150015 -0.00180907 
1535 52 1 14.026 -11047.3 -4441.98 5592.43 -0.00503289 0.00319776 -0.00483185 
45 2 1 14.026 -10049 -4400.6 5640.67 -0.00300471 -0.0020189 0.001987 
47 2 1 14.026 -10048.8 -4398.49 5641.91 -0.00820833 -0.00116205 -0.00135566 
50 2 1 14.026 -10048.8 -4396.54 5643.64 -0.00210475 -0.00137333 0.0064353 
1537 52 4 13.018 -11044.6 -4442.02 5592.55 -0.00466446 -0.00207098 0.00285558 
51 2 1 14.026 -10048.1 -4395.22 5644.1 -0.00998137 -0.000619202 0.00225889 
3721 125 2 15.034 -12283.2 -4531.93 5691.47 -0.00226021 0.00369715 -0.000113198 
55 2 1 14.026 -10047.7 -4392.2 5644.54 0.0057728 -0.0052819 0.00220007 
49 2 3 15.034 -10046.5 -4397.58 5642.83 -0.00409178 0.000706044 0.00266245 
1539 52 1 14.026 -11043.4 -4441.15 5592.78 0.000413844 -0.00448313 -0.000538312 
3723 125 3 15.034 -12285.8 -4531.82 5691.52 -0.0041352 -0.000804534 -0.000102753 
1624 55 1 14.026 -10243.1 -4400.86 5643.99 0.000175307 -0.00204682 -0.00254768 
1538 52 3 15.034 -11044.4 -4443.14 5591.52 0.00176146 -0.00844534 0.00159881 
221 8 1 14.026 -11095.3 -4446.13 5696.1 -0.000685561 0.0013925 0.00639523 
54 2 3 15.034 -10048.1 -4392.6 5647.07 0.000291789 -0.0012793 0.00489671 
2023 68 3 15.034 -11857.7 -4489.53 5602.32 -0.00149482 0.000738065 0.00398847 
3691 124 2 15.034 -12284.8 -4488.63 5645.46 -0.00251015 -0.00676358 -5.94714e-05 
225 8 1 14.026 -11091.8 -4446.03 5697.77 -0.00457453 0.000287577 0.0044026 
222 8 4 13.018 -11093.9 -4445.74 5696.39 0.00564068 -0.00297532 -0.00369217 
1623 55 3 15.034 -10242.7 -4398.98 5645.58 0.00443503 -0.00149367 0.000479861 
220 8 1 14.026 -11096.3 -4446.14 5697.24 -0.00162731 -0.00143446 -0.00280464 
3229 108 3 15.034 -11998.4 -4485.09 5602.56 -0.00205252 0.000540272 -0.00320627 
224 8 1 14.026 -11093 -4446.72 5697.24 -0.00201347 0.0015893 -0.0076436 
219 8 1 14.026 -11097.7 -4446.57 5696.62 -0.00750634 -0.00155692 -0.000190656 
223 8 3 15.034 -11093.1 -4445.54 5695.08 -0.00332716 0.00224805 -0.00286866 
52 2 1 14.026 -10048.7 -4394.42 5645.3 0.000198544 -0.00368269 -0.00166251 
53 2 4 13.018 -10047.8 -4393.24 5645.68 -0.00248882 0.000556142 -0.00910791 
3722 125 4 13.018 -12284.5 -4531.73 5692.3 -0.000942931 0.000339704 -0.000553676 
2026 68 1 14.026 -11853.4 -4490.26 5603.84 -0.00552807 -0.000584367 0.00373746 
2027 68 1 14.026 -11852.1 -4489.61 5603.44 -0.00415661 -0.00488941 0.00524689 
2018 68 3 15.034 -11858.1 -4490.45 5608.81 -0.00286791 -0.00191513 -0.00452762 
1503 51 3 15.034 -12186.8 -4486.43 5653.69 -0.00417751 -0.00284195 -0.00196063 
226 8 1 14.026 -11091.3 -4446.85 5699.01 0.00119296 0.00247242 0.00019785 
1502 51 4 13.018 -12188 -4486.12 5654.51 -0.00206778 -0.00258133 0.0019058 
2943 99 3 15.034 -12235.4 -4494.29 5655.98 -0.0060018 -0.00340985 0.00194085 
2942 99 4 13.018 -12234.9 -4494.71 5654.61 0.00225633 0.0037723 0.00543988 
2022 68 4 13.018 -11857.2 -4489.76 5603.78 -0.00269588 0.00230783 -0.0079595 
2028 68 4 13.018 -11851 -4489.98 5604.43 0.00228065 -0.00230903 -0.00541666 
2024 68 1 14.026 -11855.9 -4490.4 5603.84 -0.00250467 -0.00351249 -0.00383302 
1505 51 1 14.026 -12190.5 -4486.19 5654.04 -0.00104362 -0.00199098 0.0035797 
2941 99 2 15.034 -12234.8 -4493.5 5653.62 0.00247061 0.0030207 0.00437771 
1339 45 3 15.034 -8669.51 -4343.28 5651.11 -0.00623296 0.00320613 0.00697807 
1504 51 1 14.026 -12189.2 -4486.92 5653.94 0.000120251 -0.00919263 -0.00202465 
2020 68 1 14.026 -11858.1 -4490.87 5605.96 -0.00134323 0.00582184 -0.00226922 
1501 51 2 15.034 -12188 -4486.2 5656.06 -0.00445052 -0.0012792 -0.00375142 
2025 68 1 14.026 -11854.7 -4489.65 5603.27 0.00109443 0.00217106 -0.00218133 
2944 99 1 14.026 -12235.7 -4495.92 5654.16 -0.00107215 0.000759107 0.00763094 
2030 68 1 14.026 -11851.3 -4489.84 5605.98 -0.00107429 0.00356009 0.00232574 
1338 45 4 13.018 -8668.32 -4342.29 5650.91 -0.0039466 0.00326129 0.00500694 
230 8 1 14.026 -11090.6 -4446.94 5702.11 -0.00765908 -0.00396624 0.000279295 
2032 68 1 14.026 -11850.8 -4490.75 5608.3 -0.000631209 -0.000418929 0.00170176 
3211 108 2 15.034 -11993.1 -4486.39 5608.03 0.000103487 -0.00607267 0.00108108 
2021 68 1 14.026 -11858.2 -4490.74 5604.41 -0.00278433 0.000213031 0.00646714 
333 12 3 15.034 -10759 -4444.25 5662.44 -0.0091473 -0.00394487 0.00186151 
3320 111 1 14.026 -10193.6 -4444.64 5612.15 -0.00401665 0.00257683 0.000582198 
3317 111 1 14.026 -10195.7 -4446.16 5612.24 -0.00269479 0.00463557 -0.00136823 
1432 48 1 14.026 -9909.4 -4389.27 5708.63 -0.00634793 0.011481 0.00713649 
3325 111 1 14.026 -10190.8 -4441.51 5614.18 -0.00792548 -0.000274331 0.00401047 
3322 111 1 14.026 -10191.8 -4442.82 5612.18 0.000849821 -0.010798 -0.00886948 
3323 111 4 13.018 -10191.4 -4441.44 5612.69 -0.00253404 -0.00214338 -0.00605513 
3319 111 3 15.034 -10194.4 -4445.87 5614.24 -0.00291022 0.00162165 0.000178023 
3321 111 1 14.026 -10193.1 -4443.31 5612.78 -0.0043175 0.000784161 -0.00397878 
1433 48 4 13.018 -9909.95 -4389.87 5709.88 -0.0120985 -0.00150355 0.00631183 
3318 111 4 13.018 -10194.8 -4445.17 5612.96 0.00173619 -0.000249545 0.000105664 
3326 111 1 14.026 -10190.7 -4440.15 5614.93 0.00143859 0.00341272 0.00423667 
3324 111 3 15.034 -10190.5 -4440.63 5611.73 -0.010646 -0.0028241 0.00351639 
331 12 2 15.034 -10760.4 -4446.08 5661.02 0.00132138 0.00284616 -0.00280703 
1431 48 1 14.026 -9907.92 -4389.59 5708.14 -0.00854593 0.00178859 0.00569367 
332 12 4 13.018 -10759.5 -4445.71 5662.14 -0.00508483 -0.000289214 0.0151614 
1435 48 1 14.026 -9910.02 -4391.38 5709.73 -0.00196477 -0.00397268 0.000825057 
232 8 1 14.026 -11091.3 -4448 5704.39 0.00186232 -0.00355705 -0.00321304 
3055 102 1 14.026 -11472.6 -4443.47 5620.03 -0.00523165 -0.00380739 -0.00204109 
1438 48 4 13.018 -9910.26 -4394.56 5712.09 -0.00386302 0.00288173 0.000945767 
1833 62 3 15.034 -12095.7 -4494.02 5665.44 -0.00187038 0.00363921 0.00439075 
1436 48 1 14.026 -9909.88 -4392.22 5711.01 0.00252572 -0.00310128 0.00177376 
3056 102 1 14.026 -11473.6 -4444 5621.02 -0.00241477 -0.00188079 0.00260314 
1437 48 1 14.026 -9910.44 -4393.67 5710.84 -0.00413602 0.000243925 0.00287751 
3329 111 3 15.034 -10189.8 -4439.37 5618.61 0.00100219 -0.00100459 2.21227e-05 
334 12 1 14.026 -10759.8 -4446.51 5663.39 0.000381915 -0.00336779 -0.00420101 
335 12 1 14.026 -10760.3 -4447.95 5663.08 -0.00427012 -0.00796938 0.000450509 
3054 102 3 15.034 -11471.5 -4445.79 5619.57 -0.00612378 0.00203849 -0.00107948 
3327 111 1 14.026 -10190.3 -4440.4 5616.39 0.00134936 0.00144652 -0.00273726 
1439 48 3 15.034 -9908.8 -4394.76 5712.47 -0.00369784 -0.00534536 0.000772284 
3330 111 2 15.034 -10191.9 -4438.7 5617.47 0.00224187 0.000554003 -0.00430266 
3053 102 4 13.018 -11471.3 -4444.31 5619.84 -0.00774404 -0.00227793 0.000734789 
3328 111 4 13.018 -10190.4 -4439.1 5617.21 -0.000905481 6.47406e-05 0.000102541 
1206 41 1 14.026 -10669.8 -4437.21 5620.57 -0.0152047 0.00526654 0.00118698 
1204 41 1 14.026 -10667.6 -4436.44 5621.41 -0.00325131 -0.00398196 0.00101409 
411 14 1 14.026 -11618.3 -4478.08 5623.13 -0.00256967 0.00538089 -0.00172863 
414 14 3 15.034 -11617.7 -4480.53 5624.54 -0.0102211 0.00278143 0.00157539 
407 14 1 14.026 -11617.4 -4474.6 5621.73 -0.0050707 -0.00154724 0.00259037 
1203 41 3 15.034 -10665.3 -4435.64 5622.34 0.000381814 -0.00370791 -0.00120726 
405 14 1 14.026 -11615.1 -4473.58 5622.44 -0.000216516 0.00337864 -0.000330734 
406 14 1 14.026 -11616.6 -4473.43 5622.38 -0.00623297 -0.00281178 -0.00885839 
416 14 1 14.026 -11619.7 -4482.68 5624.83 -0.00974323 0.00150217 -0.00801827 
1202 41 4 13.018 -10666.3 -4435.51 5621.19 -0.00585024 0.00174733 -0.00276388 
408 14 4 13.018 -11617.6 -4475.75 5622.73 -0.00300544 -0.00507291 7.89794e-05 
415 14 1 14.026 -11619.7 -4481.8 5623.57 -0.0059275 -0.00502746 -0.00127669 
410 14 1 14.026 -11618.3 -4476.92 5622.11 0.000207158 -0.0026737 1.91065e-05 
413 14 4 13.018 -11619 -4480.43 5623.78 -0.00234778 -0.00176043 0.000608821 
409 14 3 15.034 -11618.2 -4475.31 5624.08 -0.00214145 0.00506029 0.00309232 
412 14 1 14.026 -11618.9 -4479.42 5622.62 0.0012666 0.000476246 -0.0036415 
417 14 1 14.026 -11620.3 -4484.11 5624.54 -0.00430043 -0.00112823 -0.00175359 
1411 48 2 15.034 -9903.5 -4384.52 5718.24 -0.00539273 -0.00188846 -0.00244748 
3100 104 1 14.026 -10668.3 -4430.96 5628.15 -0.00132369 0.00283225 -0.00331712 
616 21 1 14.026 -10764.6 -4434.07 5584.53 -0.00131629 0.00268504 -0.00641589 
3096 104 1 14.026 -10665.1 -4429.99 5630.09 -0.0084445 -0.00412359 0.003579 
3099 104 1 14.026 -10667.4 -4430.75 5629.31 -0.00362292 -0.00324445 0.000514627 
3094 104 1 14.026 -10664.9 -4428.28 5631.99 -0.00140544 -0.00545056 -0.00213188 
3097 104 4 13.018 -10665.9 -4430.59 5628.91 -0.00325735 -0.00225368 -0.00162733 
64 3 1 14.026 -10714.9 -4425.49 5581.8 0.000380222 -0.00675648 -0.000117621 
63 3 3 15.034 -10716.8 -4426.87 5580.84 -0.00651594 -0.00526858 -0.00117766 
3098 104 3 15.034 -10665.4 -4431.84 5628.21 -0.00799367 0.00131457 0.00306361 
3101 104 1 14.026 -10669.9 -4431.24 5628.45 -0.00389535 -0.0079064 -0.00178759 
622 21 1 14.026 -10758.4 -4433.41 5584.08 -0.00330057 -0.00402139 0.000991908 
3714 124 3 15.034 -12281.7 -4483.66 5628.21 -0.00249115 0.00696347 -0.0048478 
621 21 1 14.026 -10759.5 -4433.96 5584.98 -0.00883855 -0.000333035 -0.00173839 
61 3 2 15.034 -10714.4 -4426.9 5579.79 -0.00323538 0.00435873 -0.0012538 
615 21 1 14.026 -10765.9 -4433.27 5583.89 -0.00540487 0.0048067 0.00539722 
3102 104 4 13.018 -10670.8 -4431.4 5627.17 -0.0024664 -0.00105537 0.000159133 
617 21 1 14.026 -10763.3 -4433.58 5584.04 -0.00815512 0.00428803 -9.05971e-05 
3095 104 1 14.026 -10665.6 -4428.69 5630.66 -0.00248277 0.00120923 -0.00173803 
3092 104 4 13.018 -10665.5 -4427.01 5632.63 -0.0092533 -0.000905302 0.00432106 
62 3 4 13.018 -10715.4 -4426.14 5580.59 -0.00922671 -0.00342342 0.00284986 
618 21 4 13.018 -10762 -4433.96 5584.92 0.00159168 -0.0009968 -0.00194329 
620 21 1 14.026 -10760.7 -4433.48 5584.31 0.00263179 -0.00262196 0.00152106 
619 21 3 15.034 -10761.8 -4435.47 5585.14 0.00161988 0.00390662 0.00112927 
1920 64 2 15.034 -12757.3 -4525.68 5587.92 0.000901602 0.00670649 -0.00172732 
1080 36 2 15.034 -11667 -4474.45 5684.75 -0.0111878 -0.00244715 0.00574267 
1916 64 1 14.026 -12753.5 -4525.44 5587.46 -0.0021033 0.00346755 -0.00253566 
1919 64 3 15.034 -12755.5 -4527.5 5588.31 -0.0021028 -0.00591764 0.00157565 
3093 104 3 15.034 -10667 -4427.19 5633.13 -0.00724268 0.00277837 0.00032078 
1917 64 1 14.026 -12754.9 -4525.07 5587.84 -0.00461719 0.0072199 0.00163256 
3296 110 1 14.026 -10811.2 -4436.25 5638.67 -0.00389522 0.000952928 -0.00294442 
1077 36 1 14.026 -11667.2 -4473.07 5682.53 0.00446768 0.00150177 0.00104705 
3091 104 2 15.034 -10664.7 -4426.29 5633.64 -0.000303203 -0.00477011 -0.0012534 
1078 36 4 13.018 -11667.4 -4473.1 5684.07 0.0018833 -0.00606576 0.00360737 
809 27 3 15.034 -10100.4 -4385.05 5590.42 -0.00486903 0.000789213 -0.0025708 
1499 50 3 15.034 -11282.4 -4474.3 5638.02 -0.00750524 0.00593497 0.000836117 
1918 64 4 13.018 -12755.9 -4526.17 5587.61 -0.00404309 0.00307281 0.00352535 
1498 50 4 13.018 -11283.1 -4473.13 5638.68 -0.00544907 -0.00219423 -0.00595937 
1497 50 1 14.026 -11283.3 -4473.31 5640.18 -0.00236054 0.00359498 -6.44199e-05 
2114 71 1 14.026 -9951.16 -4384.72 5688.59 -0.00544095 -0.00259631 -0.00677163 
808 27 4 13.018 -10099.6 -4385.07 5591.75 -0.00726169 -0.00401123 -0.00465301 
3297 110 1 14.026 -10810.1 -4436.38 5639.85 -0.00865566 -0.000883395 0.00352963 
2110 71 1 14.026 -9951.28 -4384.31 5691.87 0.00263071 -0.00316935 -7.48902e-05 
2112 71 4 13.018 -9951.44 -4383.38 5689.36 0.00100416 0.00050114 0.00193776 
1491 50 1 14.026 -11287.6 -4472.64 5641.75 -0.00604306 -0.00376209 -0.00343165 
3298 110 4 13.018 -10809.3 -4435.11 5640.13 -0.00314189 -0.0040512 -0.00369204 
810 27 2 15.034 -10098.5 -4384.04 5591.91 0.00211972 0.0053024 0.00199384 
1495 50 1 14.026 -11285 -4474.2 5641.91 -0.00511179 0.000732247 0.000203641 
3300 110 2 15.034 -10808.6 -4434.93 5641.52 -0.00238166 -0.00410711 0.00834444 
807 27 1 14.026 -10100.5 -4385.07 5593.03 -0.00278362 -0.00736011 -0.00151625 
1494 50 3 15.034 -11286.6 -4476.31 5641.72 -0.00351323 0.00537708 -0.00532705 
1492 50 1 14.026 -11287.6 -4474.04 5641.28 -0.00128277 0.00175972 0.000232084 
1496 50 1 14.026 -11284.5 -4474.2 5640.48 -0.0116833 0.000730004 -0.00243692 
1493 50 4 13.018 -11286.4 -4474.79 5641.99 -0.00473875 -0.00159786 -0.00563512 
2111 71 1 14.026 -9952.12 -4383.6 5690.76 -0.00748232 0.00391354 0.00112284 
2113 71 3 15.034 -9952.18 -4382.42 5688.38 -0.00297272 0.00364974 -0.00578406 
3299 110 3 15.034 -10808.4 -4434.67 5638.92 -0.00547839 0.00515124 0.00162435 
241 9 2 15.034 -10428.6 -4427.3 5647.17 -0.000379005 -0.000131864 -0.00172865 
3730 125 1 14.026 -12280.8 -4526.52 5696.9 -0.00636642 -0.00420561 -0.004765 
245 9 1 14.026 -10431.6 -4426.14 5646.26 0.00310796 0.0098276 0.0049733 
3726 125 1 14.026 -12283 -4528.74 5694.48 0.00054368 -0.00326073 0.00578352 
3731 125 1 14.026 -12281 -4525.08 5697.45 -0.00237697 0.000828634 0.00593337 
3345 112 1 14.026 -10243 -4428.06 5554.73 -0.00332489 0.00763589 0.000671927 
3725 125 1 14.026 -12283.2 -4530.24 5694.08 0.00076882 0.00388687 -0.00206127 
3228 108 4 13.018 -11999.3 -4483.84 5602.84 -0.00450986 0.00659502 0.000693451 
3344 112 1 14.026 -10242 -4427.23 5555.52 -0.00272373 -0.00262558 -0.00112411 
246 9 1 14.026 -10432.4 -4424.88 5645.91 -0.0031521 -0.000378954 0.00232611 
3728 125 3 15.034 -12280.5 -4528.81 5695.1 -0.00325363 -0.00583062 0.00430488 
3346 112 1 14.026 -10243 -4429.53 5555.09 0.000129014 0.00170363 0.00122556 
244 9 1 14.026 -10430.3 -4426.17 5645.58 0.00190529 0.00409534 0.0007429 
3733 125 3 15.034 -12278.5 -4524.42 5697.3 -0.00307806 -0.000329939 -0.003076 
3727 125 4 13.018 -12281.9 -4528.37 5695.52 -0.000637538 0.000553388 0.00193323 
3343 112 3 15.034 -10243.3 -4425.11 5554.83 -0.00397177 0.00615741 -0.002458 
3230 108 1 14.026 -12000.5 -4483.7 5601.94 -0.00217624 0.00530022 0.000889733 
3342 112 4 13.018 -10241.9 -4425.74 5555.12 -0.001278 0.00126001 0.000701359 
3729 125 1 14.026 -12281.9 -4526.91 5695.91 -0.00388102 -0.00158713 -0.00135698 
3724 125 1 14.026 -12284.4 -4530.4 5693.14 -0.00378958 -0.0021592 0.00105861 
243 9 3 15.034 -10429.9 -4428.74 5645.44 -0.00350826 -0.00253955 -0.0026595 
242 9 4 13.018 -10429.3 -4427.35 5645.81 -0.00603849 -0.00468308 0.00116588 
3732 125 4 13.018 -12279.8 -4524.44 5698.17 -0.000647765 0.00348226 0.00208403 
3227 108 1 14.026 -11998.6 -4482.55 5603.22 -0.00180839 0.00839212 0.00282951 
3224 108 1 14.026 -11996.1 -4481.61 5606.27 -0.000887364 -0.00644835 -0.00185267 
1337 45 1 14.026 -8668.75 -4340.87 5651.32 -0.00741505 -0.000639017 -0.00191013 
3738 125 4 13.018 -12279.6 -4523.02 5703.01 -0.00274495 0.00138738 -0.00592567 
3225 108 1 14.026 -11997.1 -4481.4 5605.07 -0.00441678 -0.00182218 -0.00159485 
3223 108 3 15.034 -11996.5 -4479.19 5606.89 -0.00166276 -0.00661452 -0.00118074 
3739 125 3 15.034 -12278.2 -4523.04 5703.42 0.000188196 0.00495882 0.00306052 
3735 125 1 14.026 -12281 -4523.42 5700.17 0.00223902 0.000160089 0.00478851 
3222 108 4 13.018 -11995.4 -4480.28 5606.72 0.00197674 -0.00128925 -0.00835058 
781 27 2 15.034 -10100.4 -4380.3 5608.04 -0.00209733 0.00290389 -0.000673894 
3220 108 1 14.026 -11993.2 -4480.95 5607.84 -0.00283006 0.00425435 0.000197499 
3221 108 1 14.026 -11994.6 -4480.44 5608.03 -0.0012187 0.00808567 0.000829008 
3736 125 1 14.026 -12281.1 -4522.15 5701.02 -0.0014393 0.00588675 0.000342436 
3354 112 3 15.034 -10242.4 -4435.38 5560.6 -0.0034047 -0.00542364 -0.0011167 
3734 125 1 14.026 -12280 -4523.19 5699.01 -0.000462131 0.00309547 -0.0003501 
3226 108 1 14.026 -11997.7 -4482.7 5604.52 -0.00216574 -0.00120264 -0.00212041 
3347 112 1 14.026 -10243.3 -4429.93 5556.54 0.000613762 0.00200661 0.00614145 
3737 125 1 14.026 -12279.9 -4521.96 5701.94 -0.0028049 0.00216472 -0.000942075 
1424 48 1 14.026 -9903.26 -4388.5 5709.96 -0.0106503 0.010046 0.00271679 
3744 125 3 15.034 -12279 -4526.13 5707.37 -0.00479115 0.00239009 0.00130531 
1426 48 1 14.026 -9903.54 -4388.69 5707.39 -0.000912518 0.00425454 0.00217964 
718 24 4 13.018 -10717.3 -4431.3 5611.55 -0.0087813 0.00227566 -0.0017586 
3746 125 1 14.026 -12281.6 -4526.92 5709.14 0.00048713 -0.00249978 0.00077833 
3740 125 1 14.026 -12280.6 -4523.01 5704.25 -0.00148366 -0.00251763 -0.00100817 
2099 70 3 15.034 -10049.3 -4426.03 5661.62 -0.00160393 -0.00213042 -0.00279702 
719 24 3 15.034 -10716.1 -4431.76 5610.68 -0.00600305 0.00707087 0.00463364 
3741 125 1 14.026 -12280.2 -4524.18 5705.13 0.000358514 0.00191412 -0.00560343 
3743 125 4 13.018 -12280.4 -4525.51 5707.36 -0.00376135 0.000215436 -0.000929026 
1428 48 4 13.018 -9905.97 -4389.03 5706.54 -0.00676016 0.00430263 0.00964563 
1429 48 3 15.034 -9905.63 -4388.73 5705.02 -0.00115895 -0.002551 0.00449451 
717 24 1 14.026 -10717.6 -4432.21 5612.77 -0.00192561 -0.000878182 -0.00280548 
3745 125 1 14.026 -12281 -4525.56 5708.76 -0.00377419 -0.00117816 0.00731738 
1427 48 1 14.026 -9905.04 -4388.41 5707.65 -0.00185569 0.00188759 -0.00421679 
3742 125 1 14.026 -12280.7 -4524.19 5706.63 -0.00494013 -0.00429948 1.49006e-05 
1430 48 1 14.026 -9907.49 -4388.92 5706.8 -0.00140396 2.77177e-05 0.00225961 
2100 70 2 15.034 -10050.3 -4425.45 5659.33 -0.000165577 0.00419982 -0.00691701 
2098 70 4 13.018 -10049.4 -4425.01 5660.49 -0.00728599 -0.0039504 0.000322297 
3468 116 4 13.018 -10093.4 -4425.8 5617.72 -0.00559558 0.00365848 0.00161118 
3750 125 2 15.034 -12283.3 -4528.46 5712.41 0.00382253 -0.00384646 0.00126348 
1205 41 1 14.026 -10668.6 -4436.23 5620.28 -0.0030332 -0.00385103 -0.00399942 
585 20 1 14.026 -12138.5 -4524.16 5713.37 -0.00509093 -0.00329037 -0.00118011 
3749 125 3 15.034 -12281.6 -4529.49 5710.54 0.000318766 0.00997696 -0.00603344 
1201 41 2 15.034 -10665.7 -4435.63 5619.77 -0.00701758 -0.00389571 0.00122179 
587 20 1 14.026 -12141 -4523.23 5713.13 -0.000218509 -0.0047248 0.00281808 
588 20 4 13.018 -12142 -4522.51 5712.23 -0.00651707 0.0112078 0.00383512 
3466 116 1 14.026 -10095.6 -4424.91 5618.79 -0.00345958 0.00193115 -0.0038908 
582 20 4 13.018 -12136.3 -4525.43 5713.21 -0.00495777 0.000181763 0.0045257 
583 20 3 15.034 -12136.9 -4526.8 5713.54 -0.00197427 -0.00811862 0.000784762 
586 20 1 14.026 -12139.6 -4523.36 5712.6 -0.000991137 0.00154642 0.00244875 
3748 125 4 13.018 -12282.6 -4528.42 5710.96 -0.00508533 -0.00295902 0.00251298 
3747 125 1 14.026 -12282.2 -4527 5710.52 -0.00162703 0.00244626 -0.0066129 
589 20 3 15.034 -12142 -4523.07 5710.79 0.00220229 -0.00038938 -0.00110609 
584 20 1 14.026 -12137.3 -4524.46 5712.51 -0.00979066 -0.0033565 0.00258926 
1421 48 1 14.026 -9903.01 -4388.42 5712.53 -0.00353592 0.000179241 0.000180325 
425 15 1 14.026 -11191.5 -4467.17 5672.4 -0.00312247 0.00519625 -0.000485299 
424 15 1 14.026 -11190.6 -4466.11 5671.8 -0.0049081 -0.00029134 0.002023 
402 14 4 13.018 -11614.7 -4471.5 5623.89 -0.00649993 0.00558935 0.000714909 
427 15 4 13.018 -11191.6 -4469.79 5672.54 -0.00330572 -0.00135506 -0.00197097 
1365 46 1 14.026 -11145.4 -4461.35 5578.93 0.00138511 0.000666751 -0.00267981 
403 14 3 15.034 -11614 -4472.13 5625.13 -0.00908238 0.00127423 0.00496787 
422 15 4 13.018 -11189.3 -4465.66 5672.56 -0.00616966 0.00618248 0.000279384 
429 15 1 14.026 -11192.9 -4469.8 5671.79 0.00103308 0.00210063 0.00045341 
423 15 3 15.034 -11188.4 -4464.6 5671.83 -0.00941823 -0.00303736 0.00021986 
2897 97 1 14.026 -11381 -4460.94 5623.11 -0.000601031 0.00198869 0.000363265 
2898 97 4 13.018 -11379.9 -4460.53 5622.11 0.00185049 0.00424872 0.00267174 
2896 97 1 14.026 -11381.6 -4462.4 5623 -0.00866408 -0.004823 0.00258156 
426 15 1 14.026 -11190.8 -4468.52 5672.16 -0.00760303 0.00458409 0.000280593 
421 15 2 15.034 -11189.7 -4465.13 5673.96 -0.00466477 0.00234482 0.00135452 
428 15 3 15.034 -11190.7 -4471.07 5672.63 -0.00649889 0.00336571 -0.0059289 
401 14 1 14.026 -11614.4 -4469.98 5623.63 -0.00723279 -0.00614061 -0.00264851 
2899 97 3 15.034 -11378.5 -4461.13 5622.37 -0.0013513 0.000587304 0.00351653 
2895 97 1 14.026 -11382 -4462.76 5621.58 -0.0133078 0.00490119 -0.00203872 
400 14 1 14.026 -11615.2 -4469.46 5622.44 0.00188147 0.00245526 0.00496886 
399 14 1 14.026 -11614.7 -4468.1 5621.97 -0.00502717 0.00522051 0.00275641 
2894 97 1 14.026 -11383 -4463.88 5621.6 0.000299999 -0.00259643 -0.00365264 
397 14 4 13.018 -11613.3 -4468.06 5621.47 -0.00417614 0.00229015 0.00216323 
404 14 1 14.026 -11614.4 -4472.25 5622.57 -0.0045598 -0.00160783 -0.00681379 
65 3 1 14.026 -10713.7 -4424.68 5581.39 -0.00940117 -0.00535239 0.00634154 
3202 107 1 14.026 -11045.1 -4465.46 5629.69 -0.0018094 0.00242719 -0.00100376 
68 3 3 15.034 -10712 -4422.19 5580.99 -0.00286906 -0.00280554 0.000175298 
1368 46 4 13.018 -11141.8 -4461.19 5580.75 -0.00990425 -0.00399097 0.00215451 
1367 46 1 14.026 -11142.9 -4461.34 5579.65 -0.00429829 0.000286547 -0.000429666 
3200 107 1 14.026 -11043.2 -4465.3 5627.84 -0.00518893 -0.00481831 -0.00168662 
1075 36 1 14.026 -11667.7 -4471.78 5680.36 -0.000622725 -0.000353483 0.000759356 
1369 46 3 15.034 -11142.2 -4462.22 5581.84 -0.00598436 -0.000986465 -0.00472951 
1366 46 1 14.026 -11144.4 -4460.94 5579.95 -0.00560075 -0.00142776 -0.000492521 
1371 46 1 14.026 -11139.3 -4461.14 5581.24 -0.00303983 0.00466819 -5.11828e-05 
440 15 1 14.026 -11192.9 -4464.67 5679.31 -0.00413414 0.00423342 -0.000461293 
3203 107 4 13.018 -11045.4 -4466.26 5630.99 -0.00391307 0.00368477 0.00115495 
67 3 4 13.018 -10711.8 -4423.19 5582.14 0.00157342 -0.00206232 0.00353595 
69 3 1 14.026 -10711 -4422.67 5583.36 -0.00875782 -0.00319531 0.00291064 
1074 36 3 15.034 -11668 -4470.56 5678.2 -0.0100338 -0.00466102 -0.00261152 
3204 107 3 15.034 -11046.8 -4465.92 5631.46 -0.000191501 0.0013714 0.00627153 
66 3 1 14.026 -10713 -4423.98 5582.55 0.00126234 0.00573851 0.00588465 
1370 46 1 14.026 -11140.4 -4461.46 5580.24 -4.6743e-05 0.00197809 -0.0059573 
3205 107 1 14.026 -11044.3 -4466.22 5632.12 -0.00830904 0.00504685 -0.00160841 
3201 107 1 14.026 -11043.8 -4466.1 5629.06 -0.00308734 -0.00424697 -0.000465681 
3409 114 3 15.034 -10335.4 -4419.49 5588.42 -0.00800984 0.00169403 -0.00452551 
3413 114 4 13.018 -10332.8 -4414.89 5587.45 -0.000797044 -6.09734e-05 0.00228315 
3414 114 3 15.034 -10333.3 -4415.3 5586.03 0.00244995 0.000189307 -0.00416296 
441 15 1 14.026 -11193.2 -4463.88 5680.6 -0.00169735 0.0031905 -0.00637747 
3411 114 1 14.026 -10333.8 -4417.02 5588.67 -0.00479665 0.00444921 -0.000421652 
442 15 1 14.026 -11192.1 -4462.85 5681.11 -0.00638741 0.00246685 0.00296133 
3407 114 1 14.026 -10334.9 -4420.11 5590.88 -0.00264123 0.00470243 -0.00326245 
3410 114 1 14.026 -10333.7 -4418.11 5589.74 0.00156813 0.00233363 0.00175201 
1076 36 1 14.026 -11668.1 -4472 5681.84 -0.0029554 0.00137662 0.00160729 
3408 114 4 13.018 -10335 -4419.01 5589.81 0.000142421 0.00715021 -0.00199696 
3416 114 1 14.026 -10331.4 -4412.97 5588.49 -0.00704426 0.00244035 0.000898145 
3210 107 2 15.034 -11043.1 -4468.07 5636.66 0.00149245 0.0022729 0.00170523 
443 15 4 13.018 -11192.7 -4461.68 5681.95 0.00602968 -0.00271716 -0.00234953 
3412 114 1 14.026 -10332.6 -4416.1 5588.4 -0.00541084 -0.00310526 0.00229016 
1079 36 3 15.034 -11666.9 -4471.86 5684.74 0.000432057 -0.00411853 0.00596113 
3415 114 1 14.026 -10331.7 -4413.87 5587.3 -0.000808363 -0.0029645 -0.00354124 
3208 107 4 13.018 -11044 -4468.2 5635.45 0.00242637 -0.00100125 0.00142356 
3209 107 3 15.034 -11044.1 -4469.59 5634.84 -0.00561271 0.00280027 -0.0064834 
3206 107 1 14.026 -11044.7 -4467.14 5633.28 -0.00548358 -0.00103364 -0.00363864 
3207 107 1 14.026 -11043.7 -4467.07 5634.42 7.20101e-05 0.00454545 0.00157916 
444 15 3 15.034 -11191.7 -4460.61 5682.34 -0.00635625 0.00472336 -0.000102457 
1500 50 2 15.034 -11282.5 -4471.73 5638.32 0.000202388 -0.00159034 0.0042395 
273 10 3 15.034 -11334.6 -4461.5 5640.33 -0.00586041 -0.00172845 -0.0033373 
271 10 2 15.034 -11332.3 -4461.16 5639.27 -0.00351621 -0.00139752 -0.0033732 
275 10 1 14.026 -11333.3 -4461.03 5642.97 -0.00238432 0.00601752 -0.00336234 
1489 50 3 15.034 -11287.8 -4469.43 5641.72 0.00624689 0.00293447 0.00306464 
274 10 1 14.026 -11332.6 -4460.69 5641.72 -0.00909723 -0.000586247 0.00468156 
3401 114 1 14.026 -10333.3 -4420.58 5596.9 -0.00569123 -0.00725106 -0.000987249 
3402 114 4 13.018 -10333.4 -4421.13 5595.49 -0.000657419 0.000438843 -0.00394228 
3403 114 3 15.034 -10333.8 -4422.59 5595.44 -0.00745445 -0.00217373 -0.00337158 
1863 63 3 15.034 -10569.1 -4415.03 5735.47 -0.00642885 -0.000952947 0.00301762 
3406 114 1 14.026 -10334.8 -4419.67 5592.34 -0.00664329 -0.00242217 -0.0049901 