LAMMPS (7 Aug 2019)
OMP_NUM_THREADS environment is not set. Defaulting to 1 thread. (src/comm.cpp:93)
  using 1 OpenMP thread(s) per MPI task
Reading restart file ...
  restart file = 7 Aug 2019, LAMMPS = 7 Aug 2019
WARNING: Restart file used different # of processors (src/read_restart.cpp:738)
  restoring atom style molecular from restart
  triclinic box = (111.251 111.251 111.251) to (158.749 158.749 158.749) with tilt (0 0 0)
  6 by 4 by 8 MPI processor grid
  restoring pair style lj/cut from restart
  restoring bond style harmonic from restart
  restoring angle style harmonic from restart
  restoring dihedral style multi/harmonic from restart
  restoring improper style harmonic from restart
  3750 atoms
  3625 bonds
  4250 angles
  3875 dihedrals
  750 impropers
Finding 1-2 1-3 1-4 neighbors ...
  special bond factors lj:   0          0          0         
  special bond factors coul: 0          0          0         
  3 = max # of 1-2 neighbors
  3 = max # of 1-3 neighbors
  6 = max # of 1-4 neighbors
  8 = max # of special neighbors
  special bonds CPU = 0.0125849 secs
  read_restart CPU = 0.0923402 secs
Neighbor list info ...
  update every 1 steps, delay 0 steps, check yes
  max neighbors/atom: 2000, page size: 100000
  master list distance cutoff = 10.3
  ghost atom cutoff = 10.3
  binsize = 5.15, bins = 10 10 10
  1 neighbor lists, perpetual/occasional/extra = 1 0 0
  (1) pair lj/cut, perpetual
      attributes: half, newton on
      pair build: half/bin/newton/tri
      stencil: half/bin/3d/newton/tri
      bin: standard
Setting up Verlet run ...
  Unit style    : real
  Current step  : 0
  Time step     : 1
Per MPI rank memory allocation (min/avg/max) = 10.2 | 10.32 | 10.92 Mbytes
Step v_dummytime Temp Volume Press Density PotEng TotEng Pxx Pyy Pzz Pxy Pyz Pxz c_myT 
       0            0    288.16977    107159.33   -98.048794   0.81895482   -967.19917    2253.1144   -45.993039   -251.69456    3.5412147   -589.76875    646.70022   -176.30888    288.16925 
  100000       100000    289.04229    107159.33     80.08256   0.81895482   -802.90704     2427.157    791.24098   -552.37356     1.380254   -479.31004   -371.01108     117.5262    289.04234 
  200000       200000    290.12701    107159.33    -201.7544   0.81895482   -936.17717    2306.0087    376.50205   -766.50491   -215.26033     144.4789   -190.09201   -607.28586    290.12652 
  300000       300000     289.3729    107159.33    518.79878   0.81895482   -912.67191    2321.0867    1645.2257    28.987212   -117.81654   -130.25855    561.50899    515.06869    289.37321 
  400000       400000    290.19257    107159.33   -85.314171   0.81895482   -882.37104    2360.5474     30.69153    572.95214   -859.58618    943.72066    -79.72463   -484.52975    290.19137 
  500000       500000    295.92113    107159.33   -456.00587   0.81895482   -901.62871    2405.3067   -1228.3887    26.354053   -165.98296   -525.25216    441.97704   -306.72522    295.91981 
  600000       600000    297.48766    107159.33    60.515149   0.81895482    -927.3065     2397.135    198.91014    543.42516   -560.78985    356.93218    -396.5034    5.5394944    297.48586 
  700000       700000    297.71636    107159.33   -179.31091   0.81895482     -962.382    2364.6153    103.51093    -498.1219   -143.32175    71.370234   -467.02384    151.04295    297.71507 
  800000       800000    295.70786    107159.33    386.28615   0.81895482   -829.78557    2474.7665   -16.654497    1012.5047    163.00828   -88.678451    284.28125    230.65031    295.70556 
  900000       900000    295.62716    107159.33    27.106811   0.81895482   -948.57719    2355.0731    975.08711   -5.9270114   -887.83967   -108.47307   -491.26659    46.851234     295.6259 
 1000000      1000000    283.65774    107159.33   -204.30539   0.81895482   -893.70193    2276.1894   -191.71066   -472.21305    51.007552    447.01322   -404.68712   -177.16291    283.65691 
 1100000      1100000    296.71848    107159.33   -69.910123   0.81895482   -939.22562    2376.6203    313.88321    27.409987   -551.02356     327.4099   -172.64618      425.501    296.71579 
 1200000      1200000    286.11081    107159.33   -563.75107   0.81895482   -908.47938    2288.8252   -816.96832   -565.87737   -308.40751     47.49854    166.26537    628.68305    286.10971 
 1300000      1300000    294.12909    107159.33   -165.83506   0.81895482   -960.31479    2326.5946   -148.91447    277.66371   -626.25441   -386.87627    503.04187    38.922758    294.12538 
 1400000      1400000     290.3815    107159.33   -685.37892   0.81895482   -939.53227    2305.4975   -125.53488   -983.24921   -947.35265    538.74197   -395.08199    253.34229    290.37995 
 1500000      1500000    295.36472    107159.33   -160.65019   0.81895482   -981.89663    2318.8209   -201.50009   -139.30691   -141.14358   -593.34855    -279.9335   -742.61916    295.36482 
 1600000      1600000    295.49879    107159.33     311.8496   0.81895482   -896.24077     2405.975    285.10685    507.97466     142.4673   -292.27131    89.444068    62.328929     295.4987 
 1700000      1700000    292.88572    107159.33   -116.71778   0.81895482   -920.51853     2352.496    502.51488   -197.50507   -655.16315    367.04916    -232.7525   -105.41986    292.88329 
 1800000      1800000    295.02836    107159.33    89.385609   0.81895482   -875.65599    2421.3027    -487.9515    54.046201    702.06212     27.19558   -22.139286    -107.6257    295.02561 
 1900000      1900000    293.18892    107159.33    1103.8155   0.81895482   -958.29518    2318.1077     1410.703    556.04185    1344.7018    220.76575   -99.095791    401.61339    293.18789 
 2000000      2000000    288.68179    107159.33    24.206973   0.81895482    -993.8222    2232.2133    -150.8337     181.8868    41.567813    4.5030679    310.77296   -541.40455    288.67948 
 2100000      2100000      290.579    107159.33   -436.32678   0.81895482   -873.60769    2373.6292   -715.50396   -212.60154   -380.87485    196.97627   -336.96462   -170.04769    290.57558 
 2200000      2200000    295.16185    107159.33   -512.92537   0.81895482   -890.09968    2408.3508   -1285.6515   -321.86106    68.736484   -118.99025    509.00217    -112.2126     295.1585 
 2300000      2300000    298.90799    107159.33   -372.32848   0.81895482   -842.44275    2497.8711   -236.01367   -722.31851   -158.65325   -123.69771   -459.69063   -95.502459    298.90434 
 2400000      2400000    292.53695    107159.33   -504.64717   0.81895482   -917.81724    2351.2998   -357.91614   -816.89965   -339.12571   -714.87402   -148.17784   -442.05299    292.53435 
 2500000      2500000    290.57403    107159.33   -220.46086   0.81895482   -928.99107    2318.1902   -104.22151   -485.75217   -71.408909    430.83146    339.42456    65.126541    290.57063 
 2600000      2600000    290.97917    107159.33   -122.97816   0.81895482   -910.78925    2340.9195    428.71057   -381.97859   -415.66645    325.40977    191.90599    136.96516    290.97719 
 2700000      2700000    288.87749    107159.33    4.4660825   0.81895482   -965.69026    2262.5322    109.96245    465.31875   -561.88295    6.1367592    67.791966    618.12819    288.87584 
 2800000      2800000    294.14267    107159.33    203.87864   0.81895482   -893.70666    2393.3545    832.48659   -34.068186   -186.78249    149.14817    29.721577   -981.96797    294.13935 
 2900000      2900000    290.98097    107159.33   -59.526695   0.81895482   -916.26705    2335.4618   -155.29628   -448.11724    424.83344   -230.09415    623.12899    922.50781    290.97849 
 3000000      3000000    294.53398    107159.33    231.58774   0.81895482   -815.93988    2475.4941   -193.05279    1144.9878   -257.17183     967.5917   -49.929734    200.94759    294.53082 
 3100000      3100000    294.55447    107159.33    285.53518   0.81895482   -841.03969    2450.6233   -353.51041    761.64617    448.46977    439.71137   -70.761548      355.279    294.55236 
 3200000      3200000    305.83173    107159.33   -192.72648   0.81895482   -917.87058    2499.8164   -311.81472   -444.05544     177.6907   -72.802238    241.13436    106.49312     305.8302 
 3300000      3300000     288.5319    107159.33    470.38478   0.81895482   -887.50921    2336.8512   -33.935585    818.96672    626.12322    54.178084    277.19579   -384.86146    288.52956 
 3400000      3400000    293.89084    107159.33    44.368005   0.81895482   -970.49436    2313.7525    204.65776    390.14985    -461.7036   -939.74311    237.26589    521.18231    293.88846 
 3500000      3500000    295.06388    107159.33   -1066.8086   0.81895482   -939.42921    2357.9265   -801.86635   -776.18095   -1622.3786   -60.728874   -270.93144   -483.34621    295.06185 
 3600000      3600000      291.772    107159.33    49.649648   0.81895482   -923.46942    2337.0993     341.6773    421.01855   -613.74691   -450.63748    326.75406   -105.03686    291.77074 
 3700000      3700000    286.24218    107159.33    342.59509   0.81895482   -977.19684    2221.5758    56.790401    -400.7258    1371.7207   -178.81768    252.49337    123.88081    286.23936 
 3800000      3800000    288.17755    107159.33   -214.71814   0.81895482   -964.10558    2256.2949   -199.92496    54.641048   -498.87051   -591.00991    278.56442    505.57098    288.17425 
 3900000      3900000    288.97406    107159.33    585.32153   0.81895482   -889.91979    2339.3818    957.24999    877.64983   -78.935233    329.29034    323.10081     98.55781    288.97191 
 4000000      4000000    288.39283    107159.33   -286.82955   0.81895482   -918.35672    2304.4496    44.050447   -73.537309   -831.00178    731.69186   -96.573971   -188.10432    288.38924 
 4100000      4100000    292.46964    107159.33    152.94966   0.81895482   -882.28329    2386.0816    641.70572    648.95542   -831.81215   -381.10988   -145.22281   -947.24176    292.46674 
 4200000      4200000    298.65628    107159.33   -689.53701   0.81895482    -962.9691    2374.5318   -1200.0591   -139.64723    -728.9047   -954.21231    855.23304   -576.82524    298.65508 
 4300000      4300000     297.7433    107159.33   -477.04592   0.81895482   -896.07171    2431.2266   -905.42492    75.554625   -601.26747    182.80058    364.40444   -389.71642    297.74055 
 4400000      4400000    290.98337    107159.33   -556.06505   0.81895482   -926.14525    2325.6105   -255.72019   -868.07951   -544.39544    18.228805   -28.508378    562.07981    290.98309 
 4500000      4500000    287.99856    107159.33   -316.31214   0.81895482   -853.33296    2365.0674    245.19646   -618.06936   -576.06352   -475.45952   -29.798879   -79.263069    287.99621 
 4600000      4600000    294.71189    107159.33     -389.185   0.81895482   -930.61935    2362.8028     -346.849   -214.66814   -606.03787   -521.97369   -600.46167   -20.959026    294.70805 
 4700000      4700000    292.34963    107159.33   -449.66208   0.81895482   -908.08935    2358.9344   -1132.9236     -1100.48    884.41734    24.551223   -270.01752    233.81678     292.3456 
 4800000      4800000    299.26584    107159.33    106.78936   0.81895482   -808.75567    2535.5571   -281.58405    784.48615   -182.53404   -136.55077    337.29994   -166.16699     299.2624 
 4900000      4900000    290.83995    107159.33    319.88065   0.81895482   -909.17693    2340.9761   -70.290838    493.20406    536.72872   -70.912597    -598.2089    20.840962     290.8369 
 5000000      5000000    288.98736    107159.33    221.80929   0.81895482   -840.47118     2388.979    765.53121    -107.4188    7.3154715    276.06563   -135.29365    90.522932    288.98638 
 5100000      5100000    291.91443    107159.33    351.31558   0.81895482   -981.92077    2280.2396    762.36451     197.6613    93.920934   -476.64058    326.71439    20.515416    291.91063 
 5200000      5200000    283.35222    107159.33    495.28151   0.81895482   -911.53005    2254.9471    306.56737    575.43248    603.84468    68.544631    191.21266    479.19997    283.35001 
 5300000      5300000    297.04849    107159.33    33.333883   0.81895482   -970.44581    2349.0879   -35.766603    249.63637   -113.86811    406.48833    706.88122    386.06473    297.04491 
 5400000      5400000     291.5472    107159.33   -493.93391   0.81895482    -900.2135     2357.843   -512.64848   -1112.0848    142.93155   -226.61011    644.19149    -117.7254    291.54542 
 5500000      5500000    289.84361    107159.33    201.12281   0.81895482   -882.21304    2356.8058     84.40955    225.36551    293.59338   -77.214811   -125.38188    14.318597    289.84031 
 5600000      5600000    301.05456    107159.33    220.68841   0.81895482   -930.18805    2434.1138    790.11383   -20.525936   -107.52267    467.33213     588.6032    -179.1302    301.05248 
 5700000      5700000    296.88849    107159.33    -524.0889   0.81895482   -868.62304    2449.1227   -637.45528   -1080.2264    145.41495   -421.77129   -195.30768   -174.68965    296.88611 
 5800000      5800000    294.68869    107159.33   -354.02961   0.81895482   -905.62003    2387.5429    272.31169   -1082.3322   -252.06826   -19.985916   -60.433236   -15.922812    294.68428 
 5900000      5900000    290.13772    107159.33   -480.36986   0.81895482   -908.32135    2333.9842   -823.43145   -341.16601   -276.51212   -537.85588   -112.97272   -65.564646    290.13261 
 6000000      6000000    293.13786    107159.33    338.04837   0.81895482   -1010.1474    2265.6849    421.14772    402.17289     190.8245     51.02097    398.78567   -85.435101    293.13401 
 6100000      6100000    294.90147    107159.33   -672.16124   0.81895482   -831.26064    2464.2801   -625.40233   -1368.6032   -22.478182   -417.25013   -456.98828   -264.24985    294.89772 
 6200000      6200000    286.31676    107159.33    211.10362   0.81895482    -907.1034    2292.5026    243.35152   -492.40074     882.3601    532.13829    289.06066   -22.614644    286.31439 
 6300000      6300000    293.70868    107159.33    349.19477   0.81895482   -946.64056    2335.5707   -80.750042    1017.3339    111.00043   -431.01919   -63.737779    633.56182    293.70664 
 6400000      6400000    295.90357    107159.33   -305.82922   0.81895482   -914.96713     2391.772    285.07319   -1771.5583    568.99747    302.43298   -174.81894    90.531119    295.90127 
 6500000      6500000    289.78405    107159.33   -135.59422   0.81895482   -875.54992    2362.8033   -85.700503   -133.50585   -187.57632    196.00252    300.91366     619.7233     289.7793 
 6600000      6600000    292.51093    107159.33    335.38408   0.81895482   -901.07156    2367.7547    360.73714    524.39505    121.02006   -503.30768   -454.61941   -144.47509    292.50907 
 6700000      6700000    285.79921    107159.33     875.8527   0.81895482   -902.22822    2291.5942    1015.0119    267.54539    1345.0009   -132.55115   -65.223945   -262.95902    285.79546 
 6800000      6800000    291.69164    107159.33    421.13946   0.81895482   -895.40794    2364.2628    695.82425    740.12919   -172.53506    277.62401   -702.60483   -457.85929    291.68677 
 6900000      6900000    295.59235    107159.33    550.41066   0.81895482   -853.90951    2449.3518    32.774359    75.442376    1543.0153    295.44938   -322.92249    303.90998    295.58749 
 7000000      7000000    291.13821    107159.33   -293.33254   0.81895482   -862.98608       2390.5   -257.30243   -566.71515   -55.980055   -272.41195     20.90031   -286.24805    291.13478 
 7100000      7100000    294.33226    107159.33   -830.35532   0.81895482   -984.59761    2304.5821   -1492.9699   -566.45602   -431.64009   -66.066828   -552.40717   -317.28129    294.32798 
 7200000      7200000     295.1056    107159.33   -547.42365   0.81895482   -865.45036    2432.3715   -560.15762   -548.68081   -533.43252    7.9844083    207.22883   -44.238488    295.10227 
 7300000      7300000     289.3896    107159.33    278.97198   0.81895482    -895.3449    2338.6003   -150.56255   -50.764898    1038.2434   -885.64503    67.903372    555.60779    289.38443 
 7400000      7400000    288.69199    107159.33   -248.14182   0.81895482   -892.36604    2333.7833   -82.824366    7.6787295   -669.27984   -360.48371    281.26877    266.25699    288.68738 
 7500000      7500000    291.34067    107159.33   -240.14351   0.81895482   -952.80781    2302.9407   -675.05203    183.94587   -229.32437    214.32117    29.316748   -203.88116     291.3366 
 7600000      7600000    297.51833    107159.33    335.83513   0.81895482    -747.3364    2577.4478    387.16757    213.09826    407.23955    204.72395   -630.02832    434.03866    297.51131 
 7700000      7700000    293.86666    107159.33   -246.71583   0.81895482   -752.81946    2531.1572    160.86621   -735.60345   -165.41026    209.26665   -537.47095   -229.12774    293.86127 
 7800000      7800000     287.4816    107159.33   -182.21929   0.81895482   -815.53014     2397.093   -453.57686   -269.72219    176.64116    -223.1922   -248.58208   -497.99511     287.4788 
 7900000      7900000    294.23205    107159.33    97.481106   0.81895482   -849.43299    2438.6269   -391.70688   -7.0547095    691.20491   -204.13738    -591.7174   -126.77838    294.22819 
 8000000      8000000    296.05054    107159.33   -67.421928   0.81895482   -896.09752    2412.2841   -321.31375     454.1217   -335.07373    288.26589    300.66251   -5.0244028      296.047 
 8100000      8100000    300.34511    107159.33   -1093.0977   0.81895482   -848.81462    2507.5591   -1281.8845   -1211.0936   -786.31498    223.60473     227.6091    107.56618    300.33826 
 8200000      8200000    293.08359    107159.33   -121.32212   0.81895482   -845.58828    2429.6375    198.82598   -499.54606   -63.246286    777.99085    400.78414    416.77269    293.07853 
 8300000      8300000    296.70392    107159.33    267.25556   0.81895482   -936.43628    2379.2469    261.53933    588.76079   -48.533441   -347.86835    95.508226   -266.59334    296.69739 
 8400000      8400000     300.5468    107159.33    379.04722   0.81895482   -850.99495    2507.6326   -85.293417      676.014    546.42107   -617.90644   -90.435287     91.73564    300.54064 
 8500000      8500000    288.61505    107159.33   -1231.8174   0.81895482   -922.30326    2302.9863   -1507.4432   -679.00927   -1508.9998    352.94278    400.88857   -560.95979    288.60978 
 8600000      8600000    290.71423    107159.33    322.90294   0.81895482   -955.27175    2293.4763    1016.0054   -236.32437    189.02781   -457.53283    78.033942    855.70206    290.71035 
 8700000      8700000    290.40453    107159.33   -75.939893   0.81895482   -885.43808    2359.8491    194.68748    990.63067   -1413.1378   -369.50179    295.47375    131.56921    290.39985 
 8800000      8800000    295.13755    107159.33   -855.23845   0.81895482   -914.36985    2383.8091    -1284.442   -636.76007   -644.51333   -1005.3388    395.05395   -189.14344    295.13163 
 8900000      8900000    288.88856    107159.33    498.87523   0.81895482   -980.06723    2248.2789    200.93067    1212.2979    83.397139   -296.85924   -128.88038   -42.264298    288.88451 
 9000000      9000000    289.45599    107159.33   -267.05684   0.81895482   -902.03792    2332.6492    238.87916   -795.53346   -244.51621    68.250254   -566.15246   -49.779133    289.45264 
 9100000      9100000    285.00594    107159.33   -16.014854   0.81895482   -831.92796    2353.0296    497.13825    -148.3791   -396.80371    13.383543   -849.26986   -84.486033    285.00005 
 9200000      9200000    293.19548    107159.33    528.83225   0.81895482   -914.38782    2362.0883    452.90282    757.44296    376.15097   -13.215249   -64.856462   -629.39238    293.18896 
 9300000      9300000    292.88167    107159.33    298.35622   0.81895482   -973.40255    2299.5667     938.2383    263.58246   -306.75212    415.69868    389.03769   -357.14909    292.87579 
 9400000      9400000    301.19455    107159.33   -387.59505   0.81895482   -858.63595    2507.2302   -745.47995   -287.00984   -130.29536    144.14471    616.75945   -186.80742     301.1885 
 9500000      9500000    287.76546    107159.33    110.51701   0.81895482   -901.43192    2314.3634    572.62891    525.70462    -766.7825    623.51288    336.72074   -271.61758    287.75886 
 9600000      9600000     284.3634    107159.33    -333.6992   0.81895482   -824.77372    2353.0034    156.70521    249.45536   -1407.2582    458.87976   -4.5835942     99.65119    284.35855 
 9700000      9700000    290.02956    107159.33    556.28345   0.81895482   -985.87261    2255.2242   -48.696202    586.97738    1130.5692   -246.14065   -437.11528   -270.48274     290.0249 
 9800000      9800000    294.99799    107159.33    428.22788   0.81895482   -934.63487    2361.9845    233.05057    777.16087    274.47219    625.37722   -784.40686   -669.88902    294.99237 
 9900000      9900000    292.56495    107159.33    288.10667   0.81895482   -809.32027    2460.1096    569.39341   -130.92232    425.84891   -169.03454    324.39927    42.783769    292.55871 
10000000     10000000    287.98205    107159.33   -731.71329   0.81895482   -853.75914    2364.4566   -127.74228   -1188.7509    -878.6467    89.458947    72.222671    182.38616    287.97461 
10100000     10100000    289.44514    107159.33    494.50379   0.81895482   -899.03516    2335.5307    1198.6251    961.60326   -676.71703   -92.804048    3.3238151    206.81088    289.44026 
10200000     10200000    292.29899    107159.33   -287.80289   0.81895482   -923.95531    2342.5026   -80.024522   -167.35295    -616.0312    154.24386   -77.587176    229.10391    292.29237 
10300000     10300000    289.67895    107159.33    510.05827   0.81895482   -1033.3703    2203.8084    395.25617    1123.2297    11.688956    387.86979   -16.122038   -58.708149    289.67382 
10400000     10400000    293.44528    107159.33   -258.55679   0.81895482   -955.89366     2323.374   -523.57763     175.6792   -427.77194    -66.85043   -102.68675   -356.87104    293.44056 
10500000     10500000    291.94474    107159.33    77.052888   0.81895482   -928.09409    2334.4049   -758.76007    305.75191    684.16683   -251.19872     458.3777   -395.40584    291.93794 
10600000     10600000    295.82841    107159.33   -65.015431   0.81895482   -890.39544    2415.5039     521.7402   -237.07224   -479.71425   -424.39517   -306.85066    106.88688    295.82359 
10700000     10700000     294.0585    107159.33    694.18146   0.81895482   -964.83579    2321.2846     1497.631    412.30123    172.61218    196.51522    24.039012    235.36556    294.05255 
10800000     10800000    287.57949    107159.33   -124.92526   0.81895482   -915.20253    2298.5147    -492.7409    1002.1471   -884.18197    587.27717    223.74766   -162.31992    287.57436 
10900000     10900000    289.32985    107159.33   -51.753747   0.81895482   -841.24583    2392.0317   -270.69005   -105.69433    221.12313   -434.59713   -149.29076   -561.71001    289.32399 
11000000     11000000    289.78125    107159.33    242.44967   0.81895482   -902.20486    2336.1171    170.74559    520.56473    36.038705   -129.55698   -71.382505    158.15465     289.7735 
11100000     11100000    287.57282    107159.33    765.74689   0.81895482   -970.85354    2242.7891     713.4416    418.38845    1165.4106   -722.86171    287.75559   -525.55651    287.56809 
11200000     11200000    294.37957    107159.33    133.83806   0.81895482   -933.14794    2356.5605    639.13042   -271.06352    33.447269    563.51808   -695.46706    326.24075    294.37296 
11300000     11300000    293.63039    107159.33     433.8689   0.81895482    -923.3312    2358.0051    933.92729    121.01471    246.66471    194.04804    336.36604    98.410402    293.62489 
11400000     11400000     297.7589    107159.33     610.8599   0.81895482   -947.35062     2380.122    70.017285    793.17476    969.38765   -239.45696   -80.433682    638.60021      297.752 
11500000     11500000    293.42817    107159.33   -235.48025   0.81895482   -892.53278    2386.5437   -332.67184   -383.32631    9.5574048   -828.30879    278.71254    58.743845    293.42168 
11600000     11600000    291.80992    107159.33   -95.187907   0.81895482   -877.32119    2383.6713    192.60411   -26.913889   -451.25394   -24.953158    110.07428    -37.86551    291.80239 
11700000     11700000    298.89302    107159.33   -229.31719   0.81895482   -964.64355    2375.5029   -97.735154   -179.55696   -410.65947    124.77514   -168.68505   -256.91758    298.88512 
11800000     11800000    288.33967    107159.33    242.98961   0.81895482   -941.41079    2280.8014    445.25713   -411.13122    694.84294   -438.08692    74.727738   -181.42075    288.33495 
11900000     11900000    287.64076    107159.33    8.8130557   0.81895482   -888.15184      2326.25    -408.7131    810.72359   -375.57133    39.746515    512.84266   -398.02624    287.63614 
12000000     12000000    288.96057    107159.33     -179.257   0.81895482   -889.20184     2339.949    -664.5514    814.24998   -687.46959   -166.01021   -76.267506    798.86445    288.95311 
12100000     12100000    288.77596    107159.33   -369.03274   0.81895482   -837.11136    2389.9764   -84.060109    279.78795    -1302.826    -648.4501    426.03849    81.790551    288.76873 
12200000     12200000    292.54974    107159.33     283.0797   0.81895482   -896.90557    2372.3544   -212.82189    1189.5686   -127.50767   -164.54989    42.122038   -4.7498343    292.54548 
12300000     12300000    296.72301    107159.33    152.64593   0.81895482   -869.99343    2445.9031    15.491749    702.19716    -259.7511   -12.724693   -502.67595   -194.93064    296.71727 
12400000     12400000    289.40093    107159.33     422.1715   0.81895482   -845.59978     2388.472   -382.46598    847.34238    801.63809   -86.339893   -165.70802    358.84043    289.39407 
12500000     12500000    289.74607    107159.33   -303.21856   0.81895482   -839.31115    2398.6176    152.10835    -1136.684     74.92001    -188.0195    91.848619   -223.01627    289.73881 
12600000     12600000    295.12659    107159.33   -307.87423   0.81895482   -738.11098    2559.9455   -393.18304    110.19001   -640.62966    571.60816   -118.46772    336.22178    295.11924 
12700000     12700000    288.75064    107159.33   -727.56795   0.81895482    -887.9049    2338.8999   -621.86804   -1343.3065   -217.52928   -220.87274    556.47069    306.23979    288.74433 
12800000     12800000    294.91769    107159.33   -383.69458   0.81895482   -831.16237    2464.5596   -749.54182   -195.61342    -205.9285    43.834826    -60.05891   -215.44475    294.91133 
12900000     12900000    293.59436    107159.33     185.8325   0.81895482    -936.7602    2344.1735    12.541325   -159.89509    704.85126    350.75152    -35.98476   -404.96498    293.58822 
13000000     13000000    286.10564    107159.33    5.8073599   0.81895482   -963.81828    2233.4285    327.30065    -313.3458    3.4672277    176.34281    9.1067525   -128.87348    286.09832 
13100000     13100000    290.47722    107159.33   -348.54947   0.81895482   -941.94601    2304.1534   -277.65206    255.23279   -1023.2291    269.63547   -234.02252    141.30519    290.46938 
13200000     13200000    295.75909    107159.33   -551.65874   0.81895482   -919.45717    2385.6674   -1014.5338   -770.75583    130.31341     141.1973   -200.70304    304.12995    295.75125 
13300000     13300000    299.49151    107159.33    238.33391   0.81895482   -989.39645    2357.4382   -541.50042    964.05656    292.44557   -157.64391    168.18395    27.378246    299.48532 
13400000     13400000    297.45857    107159.33   -1039.8175   0.81895482   -972.72312    2351.3933   -1276.1408   -1304.7488   -538.56296   -1013.5807   -66.287776   -952.56998    297.45161 
13500000     13500000    293.98533    107159.33    255.32165   0.81895482   -923.05512    2362.2476    547.25007    425.37657   -206.66169    172.75836     240.7696   -24.576738    293.97683 
13600000     13600000    294.92481    107159.33   -194.87974   0.81895482    -927.2183    2368.5832   -563.69434    40.669521   -61.614395   -252.00672   -6.9364216    235.50989    294.91783 
13700000     13700000    297.68368    107159.33    153.86667   0.81895482   -997.97404    2328.6581   -338.57693    988.20875   -188.03182   -168.80119    326.16885   -366.99053    297.67653 
13800000     13800000    296.53503    107159.33    18.276134   0.81895482   -864.69084     2449.105    173.33421     322.5537    -441.0595   -39.075018    167.45371    181.43128    296.52947 
13900000     13900000    288.77284    107159.33   -51.150127   0.81895482   -870.55684    2356.4961    565.50429   -383.39472   -335.55995   -427.69104   -20.848339   -583.01838    288.76533 
14000000     14000000    295.20501    107159.33   -144.78746   0.81895482   -932.46179     2366.471   -526.16477    96.498948   -4.6965566    437.02431   -635.02123   -153.95219      295.198 
14100000     14100000    292.83424    107159.33   -645.70675   0.81895482   -904.06631     2368.373   -517.62742   -920.28514   -499.20768   -6.0500105   -180.80886    106.70788     292.8274 
14200000     14200000    291.46747    107159.33   -353.28853   0.81895482   -891.36418    2365.8014   -520.49917   -931.47173    392.10532    35.610148    388.13244    55.675973    291.46143 
14300000     14300000    292.75155    107159.33   -482.27933   0.81895482   -858.57071    2412.9445   -646.55604   -242.31977   -557.96217    222.62083   -262.37197     118.1639    292.74376 
14400000     14400000    291.08884    107159.33    -840.1312   0.81895482   -882.92744    2370.0069   -1034.0915   -1210.1733   -276.12883   -123.47061    293.49946   -138.91651    291.08188 
14500000     14500000    285.19604    107159.33    174.57254   0.81895482   -820.68956    2366.3924   -87.029607    276.86786    333.87937   -138.08299   -276.51836    49.837081    285.18921 
14600000     14600000    286.89629    107159.33   -374.30015   0.81895482   -909.41429    2296.6681   -253.07823   -338.67423   -531.14799   -889.47539     546.6723    409.42425    286.88889 
14700000     14700000    294.28523    107159.33   -36.881379   0.81895482   -964.08843    2324.5658   -40.559152   -242.08504    172.00006   -638.61244   -203.51531   -66.476175    294.27947 
14800000     14800000    294.32286    107159.33   -578.54612   0.81895482     -927.745    2361.3297    174.36429   -676.00923   -1233.9934    167.67512    348.06728   -210.12192    294.31567 
14900000     14900000    293.16199    107159.33    -768.7546   0.81895482   -890.57648    2385.5254   -1096.8327    -579.1684   -630.26267    226.89525    283.71059   -151.25957    293.15414 
15000000     15000000    296.93733    107159.33   -528.84063   0.81895482   -945.46606    2372.8255   -182.84751   -1161.7879   -241.88652    242.85969   -256.89246    736.23302    296.92977 
15100000     15100000    296.78112    107159.33    594.76821   0.81895482    -950.6371    2365.9088    967.70658    938.01632   -121.41826   -592.86056    193.95432    225.71602    296.77476 
15200000     15200000    294.80341    107159.33   -753.70698   0.81895482   -949.89531    2344.5496   -991.56849    137.54834   -1407.1008    -234.7747   -198.47097    12.186045    294.79424 
15300000     15300000    287.73181    107159.33    532.50517   0.81895482   -932.34996    2283.0694    395.15527     587.8134    614.54685   -127.26032     79.90722    455.83126    287.72364 
15400000     15400000    287.43665    107159.33   -555.52642   0.81895482   -961.72496     2250.396   -513.58955   -997.17949   -155.81021    651.11096   -8.6150739   -32.328195    287.42736 
15500000     15500000    293.19365    107159.33    288.75299   0.81895482    -986.7503    2289.7054    331.52147   -372.05758    906.79506    112.06011    674.33008    -398.8469     293.1869 
15600000     15600000    295.25819    107159.33   -270.23305   0.81895482   -954.38018    2345.1469    346.67321    -1053.235   -104.13731   -401.10318    395.86265    254.31751    295.25009 
15700000     15700000    293.74721    107159.33    410.00453   0.81895482   -922.24143    2360.4004    478.32892    740.00998    11.674694   -248.02986   -406.57272    1010.9359    293.74009 
15800000     15800000     283.8398    107159.33     15.27107   0.81895482   -922.49799    2249.4279   -133.91819    392.86596   -213.13455    168.23933    206.48867    528.44687    283.83125 
15900000     15900000    293.06949    107159.33    32.766324   0.81895482   -945.76744    2329.3008    -213.0247    140.90911    170.41456   -543.81065   -383.77214   -56.741319    293.06146 
16000000     16000000    291.80796    107159.33    218.18397   0.81895482   -920.23994    2340.7306   -11.854497    153.15104    513.25538     91.05712    323.31289   -5.1312691    291.79984 
16100000     16100000    293.09114    107159.33   -863.01548   0.81895482    -990.3312    2284.9789   -1111.0201   -468.67343   -1009.3529   -161.36913    724.09378   -68.930561    293.08216 
16200000     16200000    289.68799    107159.33    66.510128   0.81895482   -930.45277     2306.827   -51.234739    484.83236   -234.06724   -304.39015   -429.99822    307.25538    289.67989 
16300000     16300000    294.94327    107159.33     -334.051   0.81895482   -922.08428    2373.9235   -519.48875   -580.70447    98.040218   -342.75354   -589.63631    -425.1003    294.93355 
16400000     16400000    295.01954    107159.33    262.28706   0.81895482    -911.7372    2385.1229   -145.69299    310.55691    621.99727    84.791635    397.55081    254.30696     295.0098 
16500000     16500000     292.6731    107159.33    812.16563   0.81895482    -818.1952    2452.4433    1190.6035    460.58248    785.31095   -45.189907    -111.5948   -1531.5288    292.66663 
16600000     16600000    298.17883    107159.33    233.74733   0.81895482   -866.57232    2465.5931    154.29516     7.118555    539.82826   -686.10674   -955.58646    21.824324    298.17001 
16700000     16700000    291.99696    107159.33    -189.7634   0.81895482   -786.53342    2476.5492    477.97281   -930.49984   -116.76317   -189.64449    567.70866    789.35731    291.98729 
16800000     16800000    299.69329    107159.33    123.49079   0.81895482   -922.48303    2426.6065    1181.4739   -661.00229   -149.99924   -462.15689   -499.29878   -781.70937    299.68405 
16900000     16900000    293.41953    107159.33    1126.8676   0.81895482   -856.67221    2422.3077     1741.279     749.7722    889.55149    88.013992    161.25239    -105.8681    293.41048 
17000000     17000000    293.73898    107159.33    -372.2749   0.81895482   -876.22341    2406.3264    14.117485   -554.87611   -576.06608   -203.78977    7.5828435   -229.10872    293.72852 
17100000     17100000    291.08004    107159.33   -224.62005   0.81895482   -869.97105     2382.865    61.749152   -1192.2804    456.67109    202.00097    25.732113   -47.166209    291.07129 
17200000     17200000    299.77049    107159.33   -348.65135   0.81895482   -857.10164    2492.8506   -601.59485    -301.6476   -142.71159    256.90432   -129.42148   -10.961138    299.76044 
17300000     17300000    292.80883    107159.33    751.44659   0.81895482   -890.65019    2381.5052    852.18544     693.7547    708.39964    141.25071   -218.12016   -477.80816    292.79871 
17400000     17400000    296.16647    107159.33    144.06073   0.81895482   -933.33158    2376.3455    153.91415    104.16276    174.10527   -385.78603    456.36848    324.94317    296.15636 
17500000     17500000    288.98647    107159.33    310.51957   0.81895482   -853.31721     2376.123   -884.18764    738.07936     1077.667   -698.31461    -154.0569    -890.6347    288.97787 
17600000     17600000    288.38623    107159.33    845.58766   0.81895482   -928.49273    2294.2398    1164.6231    1489.8576    -117.7177   -63.098591   -362.46881   -42.596312    288.37574 
17700000     17700000    297.16106    107159.33   -44.559059   0.81895482    -922.7797     2398.012    151.78073   -315.71358    30.255677   -534.90426    421.40845    356.21147    297.14981 
17800000     17800000    303.29431    107159.33   -231.85715   0.81895482   -972.04181    2417.2893    130.86208   -108.53144   -717.90209   -359.73214     2.079652   -124.49105    303.28554 
17900000     17900000    290.51845    107159.33    474.02602   0.81895482   -978.35411    2268.2061    479.57987    1011.0255   -68.527282     469.8516   -445.91267   -289.98899    290.50738 
18000000     18000000    294.17682    107159.33    377.69883   0.81895482   -801.17654    2486.2661   -342.39414    1074.4005    401.09015    244.73493   -42.050412   -385.04815    294.16843 
18100000     18100000    287.67598    107159.33   -510.71677   0.81895482   -896.87288    2317.9226   -173.19641   -1036.7179   -322.23595   -49.294395    71.693568   -418.20334    287.66338 
18200000     18200000     284.7757    107159.33    56.247349   0.81895482   -901.01649    2281.3681   -107.66956   -245.90411    522.31573   -208.79927    894.00302   -803.09764    284.76585 
18300000     18300000    290.83058    107159.33    65.645516   0.81895482   -849.26196    2400.7863    513.77105   -278.66324   -38.171261   -586.40068   -472.65278   -309.83064    290.82061 
18400000     18400000    292.64112    107159.33   -27.358716   0.81895482    -921.7684    2348.5128   -368.02144    294.38858   -8.4432872   -467.03335   -391.59885    48.460876    292.63049 
18500000     18500000    292.25715    107159.33   -160.41184   0.81895482   -951.21775    2314.7726   -411.72755   -546.62676    477.11881   -740.25827    498.41992   -225.06377    292.24584 
18600000     18600000    292.54782    107159.33   -156.43849   0.81895482   -927.79483    2341.4437    205.22312   -294.32195   -380.21665   -56.957981   -50.817998   -844.37213    292.53799 
18700000     18700000    294.40672    107159.33    357.84559   0.81895482   -857.05816    2432.9537    502.93094    134.29957    436.30628    -442.9751    721.72573     618.4042    294.39786 
18800000     18800000    289.44655    107159.33   -709.78881   0.81895482   -957.12362     2277.458   -628.53684   -599.48391   -901.34569   -271.85266   -13.571324     147.5092    289.43692 
18900000     18900000    286.97947    107159.33   -224.64335   0.81895482   -898.19896    2308.8129    707.19848   -1304.4602   -76.668331    230.70144   -1307.9849    -16.41661    286.96885 
19000000     19000000    294.12311    107159.33   -258.21708   0.81895482   -836.31285    2450.5296   -1080.0691    103.23342    202.18444    33.854235    -185.9695    134.46998     294.1126 
19100000     19100000    296.23228    107159.33   -729.80139   0.81895482    -903.0834    2407.3292   -1234.8865   -487.07651   -467.44111    -330.7774   -88.268753    537.53699    296.22262 
19200000     19200000    293.69594    107159.33    390.81582   0.81895482   -814.05363    2468.0152    411.39876     240.2433    520.80541     615.8153    193.78488    9.1063178    293.68517 
19300000     19300000     293.3612    107159.33   -26.551993   0.81895482   -928.27464    2350.0534    154.22859    -647.7726    413.88803   -37.045392    521.71585     557.5589    293.35162 
19400000     19400000    293.03464    107159.33    152.90026   0.81895482   -854.77224    2419.9066    577.16471   -503.91568    385.45175    14.341815   -627.58404     -100.145    293.02441 
19500000     19500000    292.32863    107159.33    -338.3257   0.81895482   -871.27565    2395.5134   -1354.6864    48.624328    291.08502   -23.111104    490.09953   -719.13794    292.31866 
19600000     19600000    296.84995    107159.33     162.1019   0.81895482   -881.95059    2435.3645   -109.73989    534.18988    61.855691   -497.70792    338.58704    274.07875     296.8409 
19700000     19700000    292.54671    107159.33   -23.444916   0.81895482   -835.88943    2433.3366    -831.7902   -25.778097    787.23354   -762.09013    4.2304449   -20.800394    292.53482 
19800000     19800000    292.92258    107159.33   -73.266321   0.81895482   -886.27739     2387.149    532.31669   -464.25629   -287.85936   -11.125594    650.70281    -81.08103    292.91312 
19900000     19900000    295.52319    107159.33    518.91319   0.81895482   -940.10679    2362.3817     1047.327    1105.1547    -595.7421   -366.21725   -351.69354    422.26374     295.5114 
20000000     20000000    291.43221    107159.33    451.38667   0.81895482    -939.0844    2317.6871    386.11529     623.7278    344.31691    7.0751921    -397.3924   -196.54758    291.42239 
20100000     20100000    288.19943    107159.33   -585.70932   0.81895482   -965.07754    2255.5675   -116.78494   -1294.3918   -345.95118   -874.97968   -76.584958    301.27485    288.18899 
20200000     20200000    291.77391    107159.33   -613.14297   0.81895482    -913.9254    2346.6646   -552.50565   -629.50772   -657.41553    503.62186    598.69707    -506.2165    291.76383 
20300000     20300000    290.94912    107159.33    330.09616   0.81895482   -874.45388    2376.9191    353.45901    473.29223    163.53723    716.29583   -312.52984    -189.0168    290.93879 
20400000     20400000    297.75017    107159.33   -284.03297   0.81895482   -836.52288    2490.8523   -628.32596    67.436478   -291.20943   -153.98305   -203.47839   -85.374533    297.73935 
20500000     20500000    290.89069    107159.33   -736.94065   0.81895482   -933.72463    2316.9954   -564.65094   -521.12723   -1125.0438   -711.80953   -96.703598   -159.40934    290.87936 
20600000     20600000    291.02818    107159.33   -663.00245   0.81895482   -929.09342     2323.163   -672.42346   -728.96317   -587.62073    16.185755    739.55918   -160.16042    291.01612 
20700000     20700000    291.49433    107159.33   -265.52747   0.81895482   -893.19211    2364.2736   -468.02447   -530.87678    202.31883   -513.48425     400.3816    421.13909    291.48317 
20800000     20800000    303.44377    107159.33    927.46496   0.81895482   -891.28939     2499.712    1895.5914    860.55507    26.248457   -402.50449    -660.1554   -322.41087    303.43331 
20900000     20900000    290.93112    107159.33    131.33583   0.81895482    -860.5579    2390.6139    94.132689    1124.4642   -824.58938   -316.32587   -722.94665   -273.86079    290.91836 
21000000     21000000    290.49894    107159.33    555.27547   0.81895482   -791.43313     2454.909    327.35796    627.18029    711.28815    542.93579   -229.08352   -223.41388    290.48757 
21100000     21100000    292.90239    107159.33    217.35045   0.81895482   -811.35489     2461.846   -187.08913    150.79457    688.34591   -122.10847    86.844088   -164.99077    292.89037 
21200000     21200000    289.87707    107159.33    191.56803   0.81895482   -1022.3583    2217.0344    285.03121   -59.485669    349.15853    397.52863   -217.25661    35.746554    289.86802 
21300000     21300000    289.81102    107159.33   -541.11857   0.81895482   -880.35625    2358.2984   -32.393708   -394.26421   -1196.6978   -79.799042    588.39936   -728.28576     289.7992 
21400000     21400000     289.5093    107159.33    1024.5313   0.81895482   -847.22423    2388.0586    1567.8672    864.49997    641.22684   -780.31957   -68.135746      273.679    289.49838 
21500000     21500000    294.45193    107159.33   -138.54463   0.81895482   -907.17686    2383.3402   -1140.5496    301.80863    423.10705   -401.29547    508.51832    5.0383297    294.44152 
21600000     21600000    304.91672    107159.33   -964.26383   0.81895482   -854.83372     2552.628   -1481.2444    -1156.782   -254.76502   -713.58497    223.27023   -76.701197    304.90577 
21700000     21700000    292.96152    107159.33    1312.9255   0.81895482   -1042.6392    2231.2225    1229.5405    1803.6974     905.5386    68.255906    51.228681   -638.29607    292.95039 
21800000     21800000    288.81721    107159.33   -540.57166   0.81895482   -955.52112    2272.0277   -103.54886   -670.54691    -847.6192    296.60703   -51.640302    118.77081    288.80523 
21900000     21900000    293.36067    107159.33   -125.15521   0.81895482   -884.53415     2393.788   -101.40035   -38.543441   -235.52183   -416.00106    436.45592   -710.51021     293.3491 
22000000     22000000    288.81585    107159.33    10.085575   0.81895482   -893.18056     2334.353    1512.5253   -1100.9269   -381.34164   -28.606785    192.57982    502.63899    288.80523 
22100000     22100000    291.20591    107159.33    94.704478   0.81895482   -873.70056    2380.5421    750.25489   -666.11437    199.97292     238.5738   -548.84995     176.7384    291.19464 
22200000     22200000    294.63273    107159.33   -624.53775   0.81895482   -853.28212    2439.2554   -203.30059   -1978.4424    308.12973   -292.87997   -542.40837   -324.15804    294.62347 
22300000     22300000    293.09513    107159.33    646.79577   0.81895482   -891.66516    2383.6896     1151.924    904.57679   -116.11348    136.01347    249.93263   -955.91193    293.08285 
22400000     22400000     294.5785    107159.33    498.94822   0.81895482   -842.57129    2449.3602    194.03042    932.01365     370.8006   -523.64532   -564.15992   -135.13616    294.56701 
22500000     22500000    293.25709    107159.33    525.18405   0.81895482   -908.87979    2368.2849    452.31525    822.79242    300.44449    433.18198   -176.27724   -310.84482    293.24709 
22600000     22600000     294.2179    107159.33     42.17528   0.81895482   -875.15544    2412.7464    172.66656   -411.92528    365.78455    -45.81381   -526.11941   -66.887619    294.20563 
22700000     22700000    293.81417    107159.33    30.682456   0.81895482    -901.0503    2382.3398    1145.8433   -408.26845   -645.52746    145.65673    139.42654   -63.279635    293.80361 
22800000     22800000    292.83676    107159.33    88.058462   0.81895482   -871.55934    2400.9081   -239.82624   -188.00426    692.00588   -227.48712    20.096747    48.630111    292.82531 
22900000     22900000    299.61841    107159.33   -90.159801   0.81895482   -842.18506    2506.0677   -367.11598   -567.48567    664.12225    46.436973   -834.10294     536.5828    299.60668 
23000000     23000000    296.51028    107159.33   -308.18912   0.81895482    -934.6982     2378.821    -505.4938   -375.90922   -43.164333    66.128175    322.63817    287.12166    296.49832 
23100000     23100000    291.51303    107159.33   -59.050716   0.81895482   -843.74539    2413.9293   -1477.7025    402.74131    897.80901   -35.614929   -602.05286   -528.13205    291.50024 
23200000     23200000    288.01756    107159.33     245.9792   0.81895482   -894.33436    2324.2782   -88.795767   -13.420302    840.15366    264.61641   -25.575211   -960.43184    288.00579 
23300000     23300000    291.36077    107159.33    436.78025   0.81895482   -854.16564    2401.8075    512.22929    545.72833    252.38311   -145.98546   -327.21545     238.3862    291.34644 
23400000     23400000     286.3476    107159.33    472.14185   0.81895482   -917.71598    2282.2348    989.40004    381.12247    45.903055    241.83219    161.00462    181.39625    286.33735 
23500000     23500000    298.99925    107159.33   0.78105894   0.81895482   -980.99675    2360.3369    698.06538   -256.49878   -439.22343   -405.68318   -158.53861   -274.57672     298.9864 
23600000     23600000    289.08824    107159.33    637.26846   0.81895482   -850.04448     2380.533    529.63483    723.06488    659.10566   -553.53421   -170.40457   -1303.0821     289.0759 
23700000     23700000    293.06689    107159.33   -102.30326   0.81895482   -887.69119     2387.348   -793.64712    495.35683   -8.6195059    434.64917    304.24117   -58.489193    293.05262 
23800000     23800000     300.7516    107159.33   -168.41297   0.81895482   -810.46938    2550.4468   -325.88195   -358.38459    179.02762    51.769025    226.67885   -66.452417      300.739 
23900000     23900000    295.82952    107159.33    541.68375   0.81895482   -888.19092    2417.7208    1075.7147     557.0884   -7.7518199    -280.5463   -94.962449    145.90629    295.81878 
24000000     24000000    299.21589    107159.33   -301.36213   0.81895482   -924.83155    2418.9231   -459.02398   -862.00285    416.94043   -245.05361   -272.42252   -217.10693    299.20416 
24100000     24100000    294.30751    107159.33   -160.84963   0.81895482   -925.33013     2363.573   -286.19879    -187.0129   -9.3372115   -293.16354   -365.67467    190.87471    294.29357 
24200000     24200000    294.56178    107159.33    1113.2107   0.81895482   -890.14929    2401.5954    1763.0058    876.46038    700.16597     304.0828    278.36736    209.86562    294.55003 
24300000     24300000    292.97971    107159.33    213.33245   0.81895482   -909.66105    2364.4039   -448.65315    1006.1838    82.466718   -520.03461   -63.941523   -463.58926    292.96612 
24400000     24400000    296.04483    107159.33    289.64224   0.81895482   -942.12829    2366.1895    315.46544   -224.88468    778.34595   -579.76245    486.68529    230.48808    296.03087 
24500000     24500000    295.81936    107159.33   -861.36681   0.81895482   -944.42179    2361.3764   -845.37866     -656.188   -1082.5338   -473.44301    332.47397    595.18263    295.80757 
24600000     24600000      292.101    107159.33   -129.57488   0.81895482   -934.66243    2329.5829   -783.67284   -118.13942    513.08763      359.074   -295.08731    596.01946     292.0882 
24700000     24700000    297.92396    107159.33   -454.04607   0.81895482   -936.45999    2392.8572   -842.85204    -202.0873   -317.19886    394.95032    560.69157    105.79404    297.91088 
24800000     24800000    289.44361    107159.33   -582.31626   0.81895482   -876.70184     2357.847   -484.17673   -1238.5459   -24.226163   -275.54509   -39.115782    180.88092    289.43024 
24900000     24900000    289.73954    107159.33   -117.96292   0.81895482   -1003.1956    2234.6602   -533.86673    289.11092   -109.13296    148.48857    944.76185    260.96203    289.72768 
25000000     25000000    293.58441    107159.33    223.35251   0.81895482   -934.02499    2346.7975    249.43349    329.08376    91.540298    64.388014   -97.332289    368.36171    293.57285 
25100000     25100000    288.12841    107159.33   -558.10243   0.81895482   -962.40721    2257.4442   -208.18902   -415.07434   -1051.0439    309.94724    265.79203    -858.4055    288.11537 
25200000     25200000    290.92985    107159.33    883.97724   0.81895482   -896.67639    2354.4813    427.90757    857.51776    1366.5064   -248.80872   -339.17277   -388.89104     290.9174 
25300000     25300000    296.64052    107159.33   -517.43978   0.81895482   -844.68047    2470.2942   -790.04024   -625.22907   -137.05004   -594.12819    688.29232   -441.73638    296.62831 
25400000     25400000    292.00669    107159.33   -490.61348   0.81895482    -958.4093    2304.7821     -735.763   -417.18486   -318.89256   -31.502211   -870.33554   -906.62555    291.99347 
25500000     25500000    289.88571    107159.33   -74.351252   0.81895482   -955.71451    2283.7748    106.83628    486.52047    -816.4105    190.98656    149.60816    529.78878    289.87313 
25600000     25600000    293.71465    107159.33   -312.97165   0.81895482   -959.82718    2322.4508   -4.8241435   -558.28536   -375.80545    52.832617   -287.74962    428.27544    293.70183 
25700000     25700000    290.17048    107159.33    58.613185   0.81895482   -872.74026    2369.9313   -447.35777    293.71896    329.47836   -146.53111   -197.40906   -339.69266    290.15595 
25800000     25800000    288.13839    107159.33   -380.97048   0.81895482   -926.94747    2293.0155   -699.27446   -94.515521   -349.12145    15.025911    24.868185   -157.43407    288.12596 
25900000     25900000    296.53575    107159.33   -141.93435   0.81895482   -1044.1554    2269.6484   -513.93496    85.141523    2.9903885    181.30297   -350.46309     -108.316    296.52198 
26000000     26000000    300.37772    107159.33    86.920238   0.81895482   -913.46401    2443.2741    319.86101    347.17819   -406.27849    135.08713   -588.29488   -302.86978    300.36366 
26100000     26100000    293.88012    107159.33   -50.435761   0.81895482   -862.56886    2421.5582   -320.95036   -345.23983    514.88291    531.30907    468.18955   -73.156714    293.86715 
26200000     26200000    294.25982    107159.33   -103.31063   0.81895482   -975.54824     2312.822    34.484065    622.19707   -966.61302   -12.058753    380.25581    72.683339    294.24554 
26300000     26300000    294.56262    107159.33   -396.15969   0.81895482   -973.81184    2317.9422   -51.949046   -849.62874   -286.90129   -812.93666   -321.41813   -69.031517    294.54733 
26400000     26400000    290.61436    107159.33   -306.21157   0.81895482   -988.04785    2259.5841   -743.24403    388.09785   -563.48854   -507.18201    37.626836   -66.283873    290.60179 
26500000     26500000    301.32107    107159.33    314.66453   0.81895482   -883.09309     2484.187    277.97311    1043.0153   -376.99482    123.00432    229.03051   -100.62948    301.30709 
26600000     26600000    295.90306    107159.33    148.05721   0.81895482   -862.07297    2444.6606     762.6023   -133.16087   -185.26982    14.399331   -376.15227   -24.800433    295.88889 
26700000     26700000    293.15211    107159.33     325.6073   0.81895482   -840.42027    2435.5712    815.35009    75.158502    86.313307   -290.61097    170.34948    149.63202    293.13882 
26800000     26800000    293.24613    107159.33   -232.71667   0.81895482   -843.05214    2433.9901   -1155.0296   -174.26009    631.13967   -500.28403   -8.3159082    113.11347    293.23209 
26900000     26900000    290.25206    107159.33   -116.78919   0.81895482    -967.4201    2276.1632   -88.530013    143.04118   -404.87875   -221.97903    1.9920726    454.07066    290.24031 
27000000     27000000    301.54149    107159.33    -18.44336   0.81895482   -991.75541    2377.9878    425.32378   -56.032041   -424.62182   -171.55097   -102.73343   -542.67135    301.52826 
27100000     27100000    284.84773    107159.33   -358.83821   0.81895482   -1006.1044    2177.0852   -1143.8838   -108.84162     176.2108   -808.25966   -369.06876    423.67166    284.83259 
27200000     27200000    286.65195    107159.33    138.82208   0.81895482   -948.82398    2254.5278    638.22088   -581.52613    359.77148   -629.03075   -495.05909   -650.84958    286.63869 
27300000     27300000    295.44171    107159.33     156.5908   0.81895482   -886.62943    2414.9485    348.71026     112.1176    8.9445316    637.66902    502.52977    -37.61489    295.42875 
27400000     27400000    298.42158    107159.33    714.85175   0.81895482   -843.65321    2491.2249    697.50507    810.76776    636.28241   -69.916573    602.15426   -534.16552     298.4081 
27500000     27500000    294.46357    107159.33   -14.785686   0.81895482   -846.60766    2444.0394   -314.93499    -9.167613    279.74555   -413.16152   -388.93833   -3.2114102    294.44901 
27600000     27600000    301.92031    107159.33     962.6679   0.81895482   -929.87541    2444.1012    1277.0191    628.29099    982.69358     767.3355   -108.82396   -439.49482    301.90667 
27700000     27700000    297.27649    107159.33    266.06353   0.81895482   -904.76241    2417.3192    323.89142   -509.89857    984.19775     453.7831    75.224255   -166.51899    297.26124 
27800000     27800000    288.25443    107159.33   -230.26334   0.81895482   -978.75649    2242.5031   -296.89517    560.65615   -954.55098     535.5661   -118.47664    667.31335    288.24203 
27900000     27900000    291.50638    107159.33    111.04809   0.81895482   -867.48717    2390.1132    221.70492    26.170772    85.268568   -154.47948    379.67296   -427.85505    291.49294 
28000000     28000000     288.5182    107159.33     358.5074   0.81895482   -956.46022    2267.7471    672.90605    77.811427    324.80474    11.510959   -96.238916    -22.10269    288.50802 
28100000     28100000    287.77664    107159.33     -752.256   0.81895482   -952.32045    2263.5999    -566.0918   -901.28954   -789.38665   -127.86091   -180.15668   -99.979526    287.76293 
28200000     28200000    292.22769    107159.33   -1074.6216   0.81895482    -952.6862    2312.9749   -935.56802    -1856.381   -431.91569   -426.35388    181.66352   -427.98152    292.21314 
28300000     28300000    296.41891    107159.33    -74.14694   0.81895482   -931.02486    2381.4734   -782.74853    658.33651   -98.028796    559.71895    269.20236   -26.703712    296.40596 
28400000     28400000    293.53011    107159.33    624.64495   0.81895482   -863.99481    2416.2209    654.99445    190.08006    1028.8603    177.29265    403.14656   -11.561448    293.51573 
28500000     28500000    291.37141    107159.33    655.32833   0.81895482   -902.62698    2353.4651    725.74502    1001.3411    238.89883   -31.827934   -383.97802   -1305.3299     291.3576 
28600000     28600000      291.797    107159.33    771.46614   0.81895482   -797.91682    2462.9313    592.37807    1445.5303    276.49008    81.076328    241.45687    231.76283    291.78231 
28700000     28700000    297.04964    107159.33    227.49701   0.81895482   -823.07979    2496.4668    1293.2384    -1123.674    512.92656    320.63952   -165.89119    313.20787    297.03522 
28800000     28800000    288.55334    107159.33   -463.38123   0.81895482   -855.52694    2369.0731   -47.761217     -1278.92   -63.462505   -152.26428    352.28008   -277.06264    288.53739 
28900000     28900000     292.3653    107159.33   -740.86446   0.81895482   -939.08151    2328.1173   -160.24556   -1156.1838   -906.16403   -356.93496   -448.72585    13.559425    292.34944 
29000000     29000000     295.1408    107159.33    550.03824   0.81895482   -851.21711    2446.9981    687.38655    671.88125    290.84694   -584.21839   -804.18578   -99.991316    295.12592 
29100000     29100000    290.85366    107159.33   -49.990192   0.81895482   -981.75417     2268.552    161.90049   -947.56901    635.69795     181.0677   -783.06222    421.59259    290.84169 
29200000     29200000    296.39001    107159.33   -551.59798   0.81895482   -949.91893    2362.2563   -775.61223    -857.9945    -21.18719   -974.37716    -456.0487    543.00949    296.37363 
29300000     29300000    289.27609    107159.33    741.57501   0.81895482   -949.06387    2283.6129    588.52289    1154.4603    481.74186   -252.50918   -311.53891    369.15589    289.26043 
29400000     29400000    289.25876    107159.33    -87.59856   0.81895482   -898.10533    2334.3778   -597.98786   -450.87919    786.07138    397.98565   -358.65301     0.260846    289.24378 
29500000     29500000    292.96595    107159.33     950.9597   0.81895482   -984.70504    2289.2061    690.79607    993.16642    1168.9166   -215.82027   -626.05912   -54.470961    292.95198 
29600000     29600000    287.36616    107159.33   -138.26045   0.81895482   -938.76784    2272.5653    379.05257   -591.98859   -201.84532   -829.11692   -98.338134   -148.91628    287.35159 
29700000     29700000    296.19599    107159.33    31.863007   0.81895482   -867.09837    2442.9087    36.317584   -88.121296    147.39273    261.12031   -222.79541    129.33368    296.18133 
29800000     29800000    300.41027    107159.33    792.04937   0.81895482   -890.45606    2466.6458    824.08997    1236.4987    315.55948   -316.56953    198.32882    598.56602    300.39555 
29900000     29900000     282.9253    107159.33   -451.01555   0.81895482   -912.22688    2249.4794   -287.30816   -710.83471   -354.90376   -204.95901    399.23836   -163.25872    282.91181 
30000000     30000000    293.30277    107159.33    397.39377   0.81895482   -936.35926    2341.3159    357.69262    217.13914    617.34955    -804.3126    687.67623   -256.60355    293.28813 
30100000     30100000     297.6983    107159.33   -598.41622   0.81895482   -927.92266    2398.8728   -696.06792    -668.0437   -431.13704   -72.619708    454.46148   -823.01663    297.68457 
30200000     30200000    288.55292    107159.33    32.856335   0.81895482   -949.64252    2274.9527   -3.3241652    281.32852   -179.43535    304.88877    275.25639   -332.68707     288.5371 
30300000     30300000    296.47261    107159.33    516.28845   0.81895482   -984.75623     2328.342   -391.10403    534.39893    1405.5705   -58.627211    -573.6409    121.14298    296.45756 
30400000     30400000    289.45042    107159.33    497.20287   0.81895482   -942.24974    2292.3752     451.0583    400.01286    640.53746    103.18821    269.48704    163.51423    289.43459 
30500000     30500000    298.88842    107159.33    275.09558   0.81895482   -889.84353    2450.2516    309.63538   -145.61931    661.27066    -14.89269    498.54375    141.63481    298.87513 
30600000     30600000    293.92446    107159.33   -734.15364   0.81895482   -900.93116    2383.6914    48.689798   -1244.0742   -1007.0765   -127.78225    1030.1757    199.43487    293.90792 
30700000     30700000    297.64519    107159.33    261.42611   0.81895482   -861.30618    2464.8958    466.11176    225.24576    92.920801   -306.27938   -27.313492     -324.833    297.62772 
30800000     30800000    296.49737    107159.33    315.31116   0.81895482   -911.51098     2401.864    271.21341    184.56206    490.15801    -174.9344   -369.50435   -292.23946    296.48134 
30900000     30900000    294.87545    107159.33    34.475922   0.81895482   -961.41915    2333.8307   -211.86166    46.482644    268.80678    532.10655    101.48614    114.11145    294.85983 
31000000     31000000    290.81352    107159.33   -722.61391   0.81895482   -1011.8254    2238.0322   -1125.4338   -334.04214   -708.36584    464.56389    57.121524   -104.93585    290.80087 
31100000     31100000     288.7202    107159.33    111.82938   0.81895482   -918.38419    2308.0804    437.23925   -407.51591    305.76478     175.5592    472.66396    181.04575    288.70504 
31200000     31200000    293.80898    107159.33   -415.32464   0.81895482   -871.25665    2412.0755   -134.59795   -401.36826   -710.00771    120.32712    77.768073   -616.05438    293.79421 
31300000     31300000    294.40093    107159.33    438.93761   0.81895482   -978.71004    2311.2371    48.610218    541.46532    726.73728   -474.40952   -191.17407   -427.82646    294.38564 
31400000     31400000    294.16433    107159.33    184.40699   0.81895482   -894.84638    2392.4567    504.20847    665.57855   -616.56606    126.31466   -207.32042    -575.5631    294.14588 
31500000     31500000    296.72885    107159.33    396.74798   0.81895482   -822.23675    2493.7251    1159.8387   -123.60878    154.01401    660.84805    589.31799    985.60875    296.71256 
31600000     31600000    291.31058    107159.33   -438.00102   0.81895482    -877.9878    2377.4246   -790.77107   -95.920787   -427.31121   -116.21446    20.822087    1132.2472    291.29627 
31700000     31700000    293.47277    107159.33    1186.0803   0.81895482   -880.41224    2399.1627    870.05913    1176.1938     1511.988   -140.86643   -136.49388   -641.05024    293.45674 
31800000     31800000    289.50938    107159.33   -569.35032   0.81895482   -869.79626    2365.4875   -1276.2428   -794.83847    363.03033    112.00364   -413.93238   -81.926718    289.49349 
31900000     31900000    291.93376    107159.33   -235.19273   0.81895482   -879.68113    2382.6952     -330.799    239.18665   -613.96584    115.81424   -420.50794    172.55386    291.91747 
32000000     32000000    287.60477    107159.33    -439.5283   0.81895482   -843.58803    2370.4116    392.32696   -896.67606    -814.2358   -247.51992   -143.52748    90.545962    287.58815 
32100000     32100000    289.06358    107159.33    867.33804   0.81895482   -861.39073    2368.9113    230.04571    1248.4466    1123.5218    254.62798    195.72777   -64.617079    289.04675 
32200000     32200000    289.29593    107159.33    645.08429   0.81895482   -959.93287    2272.9656     487.1539    555.66334    892.43565    304.21508   -92.229704    -165.7194    289.28175 
32300000     32300000    292.36719    107159.33    231.84927   0.81895482   -829.15756    2438.0624   -438.65349    1564.4366   -430.23531    317.01836   -127.39624   -284.20645    292.34932 
32400000     32400000    287.37324    107159.33   -1362.2762   0.81895482   -909.86362    2301.5487   -1453.3914   -1218.2193    -1415.218    157.00525     150.3459   -303.00409    287.35601 
32500000     32500000    291.34133    107159.33    15.412246   0.81895482   -928.95548    2326.8004    -526.1332   -33.426416    605.79635   -401.86559     122.4431    583.43696    291.32572 
32600000     32600000    290.47174    107159.33   -90.204663   0.81895482   -829.80412    2416.2341   -634.90118    406.82396   -42.536767    785.06766   -142.16354   -56.553568    290.45695 
32700000     32700000    296.24113    107159.33    58.120891   0.81895482    -878.6407    2431.8708    183.03661   -1204.8503    1196.1763   -534.14993   -131.80313    769.07218    296.22572 
32800000     32800000    290.26582    107159.33   -4.5741015   0.81895482   -973.15018    2270.5869   -125.25622   -373.18246    484.71638    263.97609    11.160916   -100.58473    290.24857 
32900000     32900000    294.14546    107159.33    45.622942   0.81895482   -880.91227    2406.1799    38.211887   -826.27782    924.93476   -737.34313   -466.47983    675.58234    294.12761 
33000000     33000000    295.49358    107159.33    -201.8831   0.81895482   -843.91175    2458.2458    -26.29643   -606.87001    27.517137   -774.61689   -634.81057   -173.84472    295.47587 
33100000     33100000    300.57683    107159.33    360.05572   0.81895482   -940.65429    2418.3089    114.62537    571.50349    394.03828   -153.82836   -16.865961   -30.610296    300.55848 
33200000     33200000    289.00404    107159.33    172.80454   0.81895482   -878.94975    2350.6868    592.53403   -102.91081    28.790402    542.11223     146.1233   -46.108731    288.98643 
33300000     33300000     290.9357    107159.33   -151.03068   0.81895482   -953.36392    2297.8591   -200.35929    54.703693   -307.43646    46.114364    -263.2638   -506.31529     290.9205 
33400000     33400000    286.96488    107159.33    585.59197   0.81895482   -960.46377    2246.3851    607.76557    761.46193    387.54842   -354.32563   -121.33114    92.841842    286.94916 
33500000     33500000    298.91141    107159.33   -45.308296   0.81895482   -982.34523    2358.0067    118.30136    26.810163   -281.03641    49.265822   -176.48581    385.11221    298.89361 
33600000     33600000     294.9699    107159.33   -382.33726   0.81895482   -978.65659    2317.6488   -793.47418   -597.72406    244.18647    422.18257   -557.07129    -65.90837     294.9528 
33700000     33700000    293.05059    107159.33    145.15791   0.81895482   -976.10179    2298.7552    65.822108    65.885394    303.76623   -464.54093   -120.02624    286.17602    293.03303 
33800000     33800000    289.75046    107159.33   -458.94173   0.81895482   -917.35276    2320.6251    -577.4005   -411.09615   -388.32854    448.64341    401.82022    239.72879     289.7345 
33900000     33900000    297.05739    107159.33   -26.488305   0.81895482   -937.52494    2382.1083   -542.18557    -118.5908    581.31145    633.21142   -61.334515   -272.18894    297.04145 
34000000     34000000    295.66132    107159.33   -837.12834   0.81895482   -962.67284    2341.3592   -973.62361   -666.10527   -871.65612   -542.09514    320.04782    251.95021    295.64421 
34100000     34100000    294.10467    107159.33   -328.98861   0.81895482   -904.45868    2382.1778   -223.14439    702.16011   -1465.9815   -41.458345    11.926489    154.91708      294.087 
34200000     34200000    293.23053    107159.33    438.00796   0.81895482     -866.224    2410.6439    739.53969     530.0473    44.436883    -292.5261   -405.41462    365.74959    293.21408 
34300000     34300000    292.78083    107159.33    369.82627   0.81895482   -929.73926    2342.1032    853.58416   -234.81653    490.71117   -184.81471   -158.52514   -111.39209     292.7634 
34400000     34400000    296.37273    107159.33   -495.22874   0.81895482   -892.83323    2419.1488   -232.06214   -388.11525   -865.50882   -233.06896    613.39659   -234.70506    296.35716 
34500000     34500000    294.52462    107159.33    520.52615   0.81895482   -918.55074    2372.7787    336.61152    529.10174     695.8652    148.52101    150.86984   -322.39118    294.50803 
34600000     34600000    287.69125    107159.33    826.97902   0.81895482   -955.80486    2259.1612    906.83911      13.9309    1560.1671    65.983718   -414.14582   -528.97162    287.67503 
34700000     34700000    291.71519    107159.33    -420.3729   0.81895482   -919.47524    2340.4586    -384.1875   -440.74835   -436.18287   -674.77095    250.02414   -311.47074    291.69937 
34800000     34800000    286.83764    107159.33   -184.51347   0.81895482   -893.11012    2312.3168   -429.70294   -214.38263    90.545162   -231.32937   -281.00705   -126.25365    286.82108 
34900000     34900000     289.8252    107159.33   -111.29734   0.81895482   -1001.0634    2237.7497   -379.47736   -993.24582    1038.8312    346.18049    409.25175   -393.86974    289.80999 
35000000     35000000    289.76701    107159.33    294.81754   0.81895482    -973.6287    2264.5342    261.52765    746.96219   -124.03721    525.06571    232.97796   -38.533555     289.7525 
35100000     35100000    293.06077    107159.33   -303.53388   0.81895482    -896.9358     2378.035   -611.25503   -115.30094   -184.04565    85.218215   -33.180083   -204.66209    293.04461 
35200000     35200000    291.76276    107159.33    734.86125   0.81895482   -959.77515    2300.6903    1329.0276    1266.8749   -391.31877   -82.984959   -61.254861    98.397567    291.74465 
35300000     35300000    297.58319    107159.33   -466.57653   0.81895482   -1012.0419    2313.4672   -592.67513   -434.96527   -372.08921   -306.40762    260.08139   -263.98928    297.56578 
35400000     35400000    292.39834    107159.33    604.74865   0.81895482   -978.65815    2288.9099    70.840933    134.77891    1608.6261   -1040.3112   -153.52321    601.37527    292.38179 
35500000     35500000    295.09062    107159.33   -220.73253   0.81895482   -851.55153    2446.1029   -628.53648    238.27233   -271.93345   -557.76192   -52.193221    461.21931    295.07326 
35600000     35600000    297.36448    107159.33   -353.29597   0.81895482   -1031.9862    2291.0789   -893.98498   -283.86947    117.96653   -301.80831    -485.5012    197.09757    297.34642 
35700000     35700000    288.92053    107159.33   -392.22648   0.81895482    -976.0707    2252.6326    46.941235   -328.84003   -894.78064    183.87383    6.3049085    59.742645     288.9032 
35800000     35800000    290.05819    107159.33    249.21556   0.81895482   -997.30204    2244.1147     94.15156    124.83847    528.65664    408.49724   -511.48128    62.376406    290.04201 
35900000     35900000    297.27377    107159.33   -323.78714   0.81895482   -912.13024     2409.921   -573.12457    41.637107   -439.87395   -60.548867    586.23196    -111.0315    297.25604 
36000000     36000000    287.52609    107159.33    -405.2486   0.81895482   -912.74886    2300.3716   -408.01357   -420.47704   -387.25518   -420.07353    -247.2992    697.65237    287.50631 
36100000     36100000    299.43453    107159.33   -251.86399   0.81895482   -1039.8766    2306.3213   -48.218513   -308.89845     -398.475   -107.65061   -80.278756   -846.91785    299.41623 
36200000     36200000    289.04934    107159.33   -533.67708   0.81895482   -842.27785     2387.865   -490.04878    -1331.789    220.80658     477.0906    17.135402    460.46441    289.03341 
36300000     36300000     290.8955    107159.33     43.21707   0.81895482   -966.25166    2284.5221    477.40852    742.26491   -1090.0222   -230.67132    876.64372   -104.73582    290.87739 
36400000     36400000    293.47194    107159.33   -207.99984   0.81895482   -921.33175    2358.2339   -47.515061   -687.11426    110.62979    296.90917    372.16135   -4.6915213    293.45248 
36500000     36500000    289.94023    107159.33   -542.18869   0.81895482   -981.40479    2258.6937    -1019.768   -818.22573    211.42768   -75.657934     700.4803   -579.00199    289.92131 
36600000     36600000    292.38131    107159.33   -290.03992   0.81895482   -920.66384     2346.714   -306.41937    69.057606   -632.75801   -436.63351    1.5201421    352.95447    292.36336 
36700000     36700000    284.12051    107159.33   -120.45918   0.81895482   -960.69561    2214.3672    25.374245   -28.448149   -358.30364   -478.99728   -195.53302    80.710094    284.10251 
36800000     36800000    293.10854    107159.33   -262.60272   0.81895482   -967.28838    2308.2163    1028.4933   -1107.7222   -708.57919   -458.31583    427.67083   -441.21439    293.09241 
36900000     36900000    283.22625    107159.33    640.84938   0.81895482    -902.7944     2262.275    1236.5173   -15.204092     701.2349   -281.72436    68.178654     637.9742    283.20935 
37000000     37000000    292.25553    107159.33    528.37591   0.81895482   -884.51779    2381.4544    490.74613    201.55662    892.82498   -63.991283    18.211307   -680.08542    292.23719 
37100000     37100000    293.86481    107159.33   -28.266516   0.81895482   -954.38255    2329.5734   -421.41757   -544.13041    880.74844    404.30155    180.20909    166.46564    293.84581 
37200000     37200000    293.44799    107159.33   -162.08549   0.81895482   -920.42845    2358.8695   -16.670408   -551.72845    82.142402    643.97124    676.96452   -166.17876    293.42986 
37300000     37300000    286.34475    107159.33    250.80834   0.81895482   -888.41164    2311.5072    563.25651     264.7331   -75.564585   -247.00465   -54.467243      -319.34     286.3257 
37400000     37400000    290.54223    107159.33    204.22827   0.81895482   -948.70883    2298.1171     1072.054   -564.40823    105.03901     -78.4791    275.22797   -260.99285    290.52456 
37500000     37500000    302.61508    107159.33   -547.05945   0.81895482   -934.29167     2447.449   -888.44942   -590.22774   -162.50118   -349.35956    578.15661    130.22917    302.59644 
37600000     37600000    298.10977    107159.33    106.87899   0.81895482   -956.01097    2375.3826    899.29151    -983.8747    405.22016   -164.52278    110.55148    194.11118    298.09037 
37700000     37700000    294.35042    107159.33    616.01563   0.81895482   -935.21593    2354.1667     143.0334    809.35447      895.659    305.35904    52.002944    96.766627    294.33247 
37800000     37800000    290.62248    107159.33    415.28009   0.81895482   -941.19812    2306.5247    572.92068    424.17698     248.7426    231.45404    117.51871    -52.85449    290.60307 
37900000     37900000    295.07454    107159.33   -316.26662   0.81895482   -868.27099    2429.2037   -36.200629   -455.24249   -457.35673    190.90121    557.87812    35.869832    295.05528 
38000000     38000000    294.22542    107159.33   -285.83452   0.81895482   -934.30197    2353.6838   -252.79741   -1083.7246    479.01845    120.21784    333.38962     161.5442    294.20675 
38100000     38100000    289.10316    107159.33   -125.26223   0.81895482   -962.36373    2268.3805   -227.95197   -493.81453     345.9798    138.91735    144.91865    337.60243     289.0853 
38200000     38200000    289.97596    107159.33   -101.68032   0.81895482   -970.05198    2270.4458    321.27084   -698.80039    72.488605    130.77889     77.65712   -26.796813    289.95801 
38300000     38300000    293.74701    107159.33   -146.81254   0.81895482   -938.03822    2344.6014   -97.615009   -42.330723   -300.49187   -96.433693   -170.74537    98.180896    293.72679 
38400000     38400000    288.04197    107159.33    806.96746   0.81895482   -953.21916    2265.6662    241.00252    861.27271    1318.6272     373.8576    7.3283181    130.87764    288.02456 
38500000     38500000    298.57085    107159.33   -221.85466   0.81895482   -905.60153    2430.9447   -726.05212   -421.80481    482.29295   -696.47592    359.14941   -122.86883    298.55075 
38600000     38600000    284.69794    107159.33     555.5889   0.81895482   -988.36872     2193.147    207.02162    281.50369    1178.2414    21.567405    497.34237   -381.05365    284.67981 
38700000     38700000     289.5139    107159.33     21.30682   0.81895482   -948.20907    2287.1252    302.58423    239.67387   -478.33764    400.87148   -237.75926    255.60086    289.49592 
38800000     38800000    294.48713    107159.33   0.75883786   0.81895482   -893.92512    2396.9853    345.91727   -12.639078   -331.00168   -168.03552   -86.561265    1.5746221    294.46711 
38900000     38900000    287.18022    107159.33    321.83399   0.81895482   -978.55492    2230.7004   -125.08215    850.71907    239.86504    122.37529    165.35181    151.64241    287.16025 
39000000     39000000    290.89226    107159.33    309.16527   0.81895482   -952.45583    2298.2817    104.74718    -180.3291    1003.0777    430.14279       745.48    308.79288    290.87628 
39100000     39100000    281.96313    107159.33   -3.3871424   0.81895482   -958.81597     2192.138    704.48099   -224.02697   -490.61544    -268.8338   -457.98943    241.42674    281.94554 
39200000     39200000     296.5246    107159.33   -267.25351   0.81895482   -955.35919    2358.3201    37.838783   -389.72081   -449.87849    42.835006   -990.49197    901.35246    296.50428 
39300000     39300000    301.54928    107159.33    772.90083   0.81895482   -900.70135     2469.129    570.52405      109.269    1638.9095   -241.08291     454.8481   -319.78956    301.53018 
39400000     39400000     291.5783    107159.33   -586.93943   0.81895482   -897.05315    2361.3509   -5.9697773    -1031.154   -723.69454    802.47423     415.2175    -36.06579    291.55969 
39500000     39500000    294.85546    107159.33     358.5597   0.81895482   -979.25996    2315.7665    894.62551   -390.69456    571.74814    86.471335    116.88167   -65.390589      294.836 
39600000     39600000    288.52821    107159.33    397.90755   0.81895482   -879.11437    2345.2048    -182.0768     766.2428    609.55665   -45.063952    -289.4981   -1123.3538    288.50776 
39700000     39700000    299.05473    107159.33   -861.07241   0.81895482   -961.19019    2380.7635   -788.60172   -668.98991   -1125.6256    252.58124   -113.22334    180.60899    299.03528 
39800000     39800000    291.82549    107159.33     480.6761   0.81895482   -958.13797    2303.0284    78.387674    1228.8356    134.80502    -233.0633    236.81629   -543.38675    291.80661 
39900000     39900000    295.06165    107159.33    66.834421   0.81895482   -908.86559    2388.4652   -381.60633   -334.20311    916.31271    156.65185    73.187502    225.22102    295.04143 
40000000     40000000    303.94151    107159.33    412.98035   0.81895482    -919.0078    2477.5559    1467.9588    497.56482   -726.58259   -151.22625    152.55545   -151.04242    303.92087 
40100000     40100000    289.38554    107159.33    215.52935   0.81895482   -890.45842    2343.4415    349.84537   -204.40305    501.14574   -354.28796   -265.34432   -394.91978    289.36664 
40200000     40200000    290.31929    107159.33   -757.07309   0.81895482   -909.17844    2335.1561   -79.935112   -788.91117    -1402.373   -214.70218    127.18066    49.081762    290.30051 
40300000     40300000    297.24302    107159.33   -519.39992   0.81895482    -837.4195    2484.2882   -1227.2569   -144.42519   -186.51764    154.60336     119.7481   -502.59058    297.22246 
40400000     40400000    294.11337    107159.33    254.84994   0.81895482   -983.65946    2303.0742    917.21809    446.75347   -599.42173    558.39329   -64.316553    496.85212    294.09421 
40500000     40500000    286.05115    107159.33   -65.947668   0.81895482   -1017.5592    2179.0787    529.87083   -457.94141   -269.77243   -188.75199   -193.95918   -54.949058    286.03131 
40600000     40600000    292.24667    107159.33    388.07069   0.81895482   -1029.2609    2236.6122    93.450288    589.46732    481.29445    1210.8497    393.92273   -202.98942    292.22658 
[...]
290400000    2.904e+08    292.66339    107159.33    116.41002   0.81895482   -1563.9326    1706.5974    594.13019   -515.69267    270.79253   -18.977579   -250.22991   -68.509606    292.58484 
290500000    2.905e+08     294.8917    107159.33   -868.28668   0.81895482   -1643.8225     1651.609   -94.363046    -962.5544   -1547.9426   -302.45682    361.71577    46.704248    294.81396 
290600000    2.906e+08    296.51411    107159.33   -1003.0167   0.81895482   -1651.2708    1662.2913    -851.1053   -565.93528   -1592.0097   -528.01139    10.227632    98.943481    296.43613 
290700000    2.907e+08     293.0856    107159.33    -108.6892   0.81895482   -1575.4694    1699.7789    606.25454   -636.93347   -295.38867    276.35476    193.33045    266.54497    293.00643 
290800000    2.908e+08    289.64226    107159.33   -294.93587   0.81895482   -1622.7666    1614.0021    444.76231   -483.08267   -846.48726    241.87363   -228.66211   -561.09793    289.56468 
290900000    2.909e+08    288.36722    107159.33    25.095008   0.81895482   -1552.3231    1670.1971    419.70055    64.822214   -409.23774     292.7037   -580.68775   -219.06275    288.28912 
291000000     2.91e+08    294.26535    107159.33   -442.89364   0.81895482   -1660.1509    1628.2812   -283.45334   -1028.4214   -16.806145   -186.89487   -202.35265   -135.20205     294.1888 
291100000    2.911e+08    289.71798    107159.33   -835.41717   0.81895482   -1587.8433    1649.7716   -612.49128   -336.72063   -1557.0396    10.129156    63.990668   -112.18394    289.63877 
291200000    2.912e+08    294.28871    107159.33   -686.10028   0.81895482    -1652.062     1636.631   -188.74533   -947.96109   -921.59441   -74.797968    669.97841    449.09461    294.21054 
291300000    2.913e+08    295.14678    107159.33    419.97451   0.81895482   -1645.2099    1653.0722    622.46579    657.64824   -20.190515   -76.991873   -362.96419   -183.88552    295.06829 
291400000    2.914e+08    295.31752    107159.33   -520.15894   0.81895482   -1589.4973    1710.6928   -237.28817   -862.05989   -461.12875    139.66682    -152.6219    59.662793    295.23984 
291500000    2.915e+08     295.6582    107159.33   -349.47289   0.81895482   -1566.3167    1737.6805   -65.340865   -358.95636   -624.12144    427.65865   -98.736739   -219.74374    295.58009 
291600000    2.916e+08    286.27208    107159.33   -92.596924   0.81895482   -1563.6241    1635.4827   -19.924719    -165.6154   -92.250658   -142.18093    258.50498    870.70168    286.19291 
291700000    2.917e+08    305.36977    107159.33   -529.44152   0.81895482   -1569.1325     1843.392     146.0249   -694.09149    -1040.258    122.97359    116.97305   -267.30564    305.28983 
291800000    2.918e+08    289.83436    107159.33    -404.0187   0.81895482   -1565.3998    1673.5157    46.609886   -930.41597   -328.25003    83.940532    284.95007    113.93684     289.7555 
291900000    2.919e+08    293.18432    107159.33    225.17622   0.81895482   -1679.8115    1596.5399    835.58631   -292.89804    132.84039   -89.585714   -298.80048   -295.87867    293.10722 
292000000     2.92e+08    289.33331    107159.33   -644.71197   0.81895482   -1640.7686    1592.5476   -867.45761    -265.7628   -800.91549    858.15839   -266.97386    359.71848    289.25665 
292100000    2.921e+08    297.80183    107159.33   -998.47299   0.81895482   -1604.0491    1723.9033   -1142.7218   -1222.7932   -629.90397   -307.03856   -54.005635    -151.9031    297.72256 
292200000    2.922e+08    293.01259    107159.33   -297.49438   0.81895482   -1663.2151    1611.2172    791.78121   -199.58859   -1484.6758   -590.89921   -84.091253   -210.13203    292.93427 
292300000    2.923e+08    294.81487    107159.33    323.59956   0.81895482   -1653.9109    1640.6621    921.11853   -401.59747    451.27762    557.41673    194.83151    139.84333    294.73419 
292400000    2.924e+08    292.51899    107159.33   -707.90646   0.81895482   -1641.3152    1627.6011   -50.681957   -1308.2843   -764.75314   -372.02624    522.43935   -341.91551      292.441 
292500000    2.925e+08    295.66973    107159.33    581.96321   0.81895482   -1647.3511    1656.7749     815.2526    664.72411    265.91291   -137.90749   -540.23489   -79.678265    295.59188 
292600000    2.926e+08    295.30688    107159.33   -250.60725   0.81895482   -1622.1386    1677.9326    465.12378   -465.44889   -751.49666    146.47519    527.13018    58.837545    295.22844 
292700000    2.927e+08    290.57856    107159.33    163.23576   0.81895482     -1671.38     1575.852    981.96466   -633.14513    140.88774   -324.19754   -44.892527    73.044794    290.50011 
292800000    2.928e+08     296.6231    107159.33    360.62877   0.81895482   -1602.6516    1712.1285    638.55549    48.969299    394.36151   -19.732391   -32.461799    750.84483    296.54332 
292900000    2.929e+08    293.79585    107159.33   -377.65571   0.81895482    -1607.298    1675.8873    9.3877586   -842.12531   -300.22958   -428.90644    6.0243866    115.62923    293.71787 
293000000     2.93e+08    294.01081    107159.33   -411.80282   0.81895482   -1580.9473    1704.6402       287.47   -140.17791   -1382.7006    91.963946    279.88492     550.5434    293.93076 
293100000    2.931e+08    297.76695    107159.33    -456.2652   0.81895482   -1668.9745    1658.5881    139.20118   -533.40791   -974.58885   -331.71649    44.874869    572.69493    297.68879 
293200000    2.932e+08    293.21457    107159.33   -107.07462   0.81895482   -1588.5899    1688.0996    331.69341   -1082.2911    429.37387    45.961488   -302.52043   -244.69078    293.13563 
293300000    2.933e+08     289.9455    107159.33   -137.25486   0.81895482   -1609.7788    1630.3786    47.056342   -416.23307   -42.587844   -1214.4435    224.03566   -23.789256    289.86831 
293400000    2.934e+08     288.7608    107159.33   -294.62378   0.81895482   -1642.4693     1584.449    681.59017   -723.44303   -842.01849   -299.51168   -504.81722   -592.32649    288.68542 
293500000    2.935e+08    287.46547    107159.33   -238.24213   0.81895482   -1586.2797    1626.1633    -161.9947  -0.47730002   -552.25438   -400.68212   -8.1206588    440.13067    287.38843 
293600000    2.936e+08    294.67239    107159.33   -869.81637   0.81895482   -1608.3138    1684.6669   -797.80841   -1150.6324   -661.00827    242.16693    139.33276    754.30725    294.59387 
293700000    2.937e+08    293.29727    107159.33     26.15367   0.81895482   -1606.5687     1671.045     155.9382    31.240759   -108.71795   -7.1546096   -247.07841    136.71469    293.21726 
293800000    2.938e+08    292.92801    107159.33   -466.76069   0.81895482   -1625.2127    1648.2745     148.8692   -265.93258   -1283.2187    173.29238    -4.058372    -483.4241    292.84954 
293900000    2.939e+08    287.84931    107159.33   -228.87261   0.81895482   -1577.7446    1638.9879    534.82745   -184.16228    -1037.283    126.75194   -117.41023    40.364218    287.77155 
294000000     2.94e+08    293.01642    107159.33   -192.52335   0.81895482   -1667.4765    1606.9987    108.03138   -232.31151   -453.28991   -188.77017   -234.89873    542.44015    292.93748 
294100000    2.941e+08    289.47426    107159.33   -766.12687   0.81895482   -1594.5185    1640.3728   -1053.7145    -602.9474   -641.71869   -777.39903    214.40347    430.27643     289.3963 
294200000    2.942e+08     294.4194    107159.33    -38.03929   0.81895482   -1635.3376     1654.816     575.3385   -464.48238   -224.97399   -781.76135    1.9177714    497.80053    294.34118 
294300000    2.943e+08    297.42672    107159.33    -285.4563   0.81895482   -1692.2275     1631.533    -501.9687   -314.62126   -39.778929    658.86326   -287.17865    306.52292    297.34781 
294400000    2.944e+08    293.68804    107159.33    151.91944   0.81895482   -1661.1649    1620.8157    770.58391   -590.81395    275.98836    92.350578    39.143198    -271.3665    293.60992 
294500000    2.945e+08    297.40425    107159.33      207.025   0.81895482   -1583.5131    1739.9963    435.95616     386.0675   -200.94868   -126.36267    274.39976    68.529792    297.32344 
294600000    2.946e+08    293.98924    107159.33   -165.63622   0.81895482   -1643.3594    1641.9871    312.03905   -123.28874   -685.65897   -585.04534   -110.74594    -143.4449    293.91087 
294700000    2.947e+08    296.89058    107159.33    370.17796   0.81895482   -1671.0417    1646.7273    1654.5447   -527.80998   -16.200848    114.38958    134.22144   -4.0348296    296.81303 
294800000    2.948e+08    291.68962    107159.33   -128.03187   0.81895482   -1605.6794    1653.9687   -567.41568   -280.48277    463.80283    51.525111    862.38296    609.24449    291.61074 
294900000    2.949e+08    295.79341    107159.33    -657.7414   0.81895482   -1670.0719    1635.4362   -516.31924   -297.57023   -1159.3347   -4.5992887   -263.26726    140.30835    295.71444 
295000000     2.95e+08    296.36875    107159.33   -481.50846   0.81895482   -1653.7486    1658.1891    402.86863   -706.99632   -1140.3977    481.58632   -421.84374    140.18275    296.29101 
295100000    2.951e+08    289.67691    107159.33   -222.98306   0.81895482    -1515.762    1721.3939    130.86834   -183.57027   -616.24725   -651.97396    293.48904    107.04288    289.59784 
295200000    2.952e+08    292.52575    107159.33    57.581794   0.81895482   -1577.5041    1691.4877    864.29766   -897.02532    205.47304   -565.34449   -113.16281     -578.796    292.44598 
295300000    2.953e+08    299.74675    107159.33   -434.42872   0.81895482   -1627.5483    1722.1387    754.00672   -1474.0086   -583.28427   -52.772936    247.27672   -117.99506    299.66706 
295400000    2.954e+08    292.63852    107159.33   -616.70428   0.81895482   -1625.3021      1644.95   -96.751181   -997.40989   -755.95178   -363.81757    104.92058   -28.472953    292.55966 
295500000    2.955e+08    293.80043    107159.33   -113.28795   0.81895482   -1626.0272    1657.2094   -84.038594    -221.4417   -34.383557   -184.97209   -72.263049    100.89296    293.72096 
295600000    2.956e+08    298.15021    107159.33   -71.187351   0.81895482   -1644.5903    1687.2553    320.59298    -369.2118   -164.94323    2.8696272    41.034375    150.41655    298.07252 
295700000    2.957e+08    297.27627    107159.33   -1210.8888   0.81895482   -1576.5848    1745.4944   -659.96291   -1826.4681   -1146.2355   -191.86262   -233.93926    111.88313    297.19875 
295800000    2.958e+08    291.29431    107159.33   -531.29692   0.81895482    -1653.274    1601.9565   -129.99246    -444.9934   -1018.9049    319.62725    265.83457    -194.7312    291.21563 
295900000    2.959e+08    291.12769    107159.33   -373.43562   0.81895482   -1577.7822    1675.5864   -151.20123    21.440956   -990.54657   -400.26454    133.12642    65.293576    291.04902 
296000000     2.96e+08      292.408    107159.33   -6.7997185   0.81895482   -1612.1967    1655.4794    1066.1503    68.183154   -1154.7326   -285.58879   -233.79907    3.0242673    292.33025 
296100000    2.961e+08    284.03949    107159.33   -226.89164   0.81895482   -1611.3192    1562.8383      445.053     -766.201   -359.52691   -276.42442   -214.62361    102.17651    283.96089 
296200000    2.962e+08    296.14016    107159.33    347.48399   0.81895482   -1535.7426    1773.6405    595.21839    386.46319    60.770398    42.875442    320.81991      504.062    296.05963 
296300000    2.963e+08    298.31513    107159.33    310.83754   0.81895482   -1703.0423    1630.6463    459.79572    250.02446    222.69243   -80.768527   -86.889268    205.98786    298.23542 
296400000    2.964e+08    290.39974    107159.33    -265.9947   0.81895482   -1642.8095    1602.4241    231.65253   -605.49495   -424.14168    62.567119    -423.8525    -193.9413    290.31996 
296500000    2.965e+08    297.04715    107159.33    352.25853   0.81895482   -1647.2287      1672.29    264.61641     815.8075   -23.648321    -66.19941     265.6377   -286.33402    296.96844 
296600000    2.966e+08     293.1983    107159.33   -221.33744   0.81895482   -1654.8675    1621.6401   -112.36244   -212.59447   -339.05541   -9.0036673   -294.88137   -91.143242    293.12033 
296700000    2.967e+08    288.69321    107159.33   -459.93734   0.81895482   -1604.1432    1622.0198   -421.41445   -1288.3771    329.97952    83.317908    3.3816285   -472.23372    288.61396 
296800000    2.968e+08    296.74513    107159.33   -90.616976   0.81895482   -1614.5592    1701.5845    87.688534     417.2662   -776.80566   -298.96649   -33.451592   -108.38051    296.66497 
296900000    2.969e+08    291.54346    107159.33   -373.87465   0.81895482   -1571.8866    1686.1281    569.45882   -288.07933   -1403.0034    694.04166    387.12667   -242.42327    291.46219 
297000000     2.97e+08    293.05119    107159.33   -525.98872   0.81895482   -1617.0989    1657.7648   -291.43983   -473.23472   -813.29162    496.80456    281.76498    295.50604    292.97398 
297100000    2.971e+08    296.18907    107159.33   -615.62224   0.81895482   -1588.9202    1721.0095    427.96149   -874.49964   -1400.3286    320.00781    170.28066    304.35432    296.10841 
297200000    2.972e+08    294.16285    107159.33   -188.99596   0.81895482   -1584.3939    1702.8926   -195.88739   -66.518829   -304.58165   -636.93089    465.02747   -29.831274    294.08325 
297300000    2.973e+08    286.22779    107159.33     58.04188   0.81895482   -1608.9946    1589.6172    151.74414   -79.488299     101.8698    631.11232    -211.4482    226.03387    286.14955 
297400000    2.974e+08     295.0728    107159.33   -214.42506   0.81895482   -1637.5133     1659.942   -565.56007   -261.18024    183.46514   -500.54006   -13.172551    802.93055    294.99366 
297500000    2.975e+08    290.13669    107159.33   -971.39641   0.81895482   -1588.9199    1653.3741   -975.98318    -1145.593   -792.61302   -134.22971    175.09387    814.09223     290.0574 
297600000    2.976e+08    293.44956    107159.33   -566.24942   0.81895482   -1659.3652    1619.9503   -408.52813    -750.6518   -539.56833   -764.37755    -267.2591   -139.75559    293.37227 
297700000    2.977e+08    293.49657    107159.33    -130.8414   0.81895482    -1609.698    1670.1429    911.05747   -54.339769   -1249.2419   -797.69029    511.59676    393.93359    293.41742 
297800000    2.978e+08     295.7662    107159.33     -459.916   0.81895482   -1575.3153    1729.8887   -79.639454   -842.23058   -457.87798    124.34275    863.64006   -173.78165     295.6863 
297900000    2.979e+08    295.96338    107159.33   -617.86403   0.81895482   -1635.6216     1671.786   -565.78876     59.51252   -1347.3159    -423.8184   -621.00392    50.285279    295.88615 
298000000     2.98e+08    286.85117    107159.33   -245.48001   0.81895482   -1638.8135    1566.7646    105.97257   -640.00897   -202.40362   -174.06177    421.06908     686.0778    286.77323 
298100000    2.981e+08    286.98492    107159.33    -158.3873   0.81895482    -1659.602    1547.4709     202.1719   -380.55705   -296.77675    169.58701    199.36589   -355.16364    286.90586 
298200000    2.982e+08    298.69684    107159.33   -485.60245   0.81895482   -1579.2584    1758.6958    341.81003   -652.33173   -1146.2857   -385.34767    200.30854    953.32976    298.61651 
298300000    2.983e+08    289.73967    107159.33    -212.7129   0.81895482    -1596.557    1641.3004    702.81089   -469.11774   -871.83184    227.94419    -546.6491   -730.07521    289.66202 
298400000    2.984e+08    294.56671    107159.33   -480.64726   0.81895482   -1606.5437     1685.256   -477.84214   -622.49736   -341.60226    83.158575   -285.87621    115.55256     294.4864 
298500000    2.985e+08    292.42618    107159.33   -129.92819   0.81895482   -1616.7324    1651.1467    254.79523   -873.24899     228.6692   -236.01556    150.05152    497.81237    292.34799 
298600000    2.986e+08     290.2574    107159.33   -924.24159   0.81895482   -1565.1683    1678.4747   -465.92939   -836.69116   -1470.1042   -479.90126    263.33572    500.07537    290.17673 
298700000    2.987e+08      292.277    107159.33   -94.726671   0.81895482   -1569.7137    1696.4984   -310.23657    436.15236   -410.09579   -176.65224    101.71954    80.146351    292.19695 
298800000    2.988e+08    296.88217    107159.33   -323.61618   0.81895482   -1611.4091    1706.2661   -108.93257   -625.04903   -236.86694   -5.0800417    806.64761    343.93002    296.80295 
298900000    2.989e+08    296.53227    107159.33    188.98493   0.81895482   -1513.1959    1800.5691    858.50195   -83.447799   -208.09937    258.83024   -237.18947   -307.61695    296.45211 
299000000     2.99e+08    296.64557    107159.33   -472.40184   0.81895482   -1598.1309    1716.9002    206.61615   -772.28058    -851.5411    36.187929   -133.25928    340.69506    296.56596 
299100000    2.991e+08    293.19715    107159.33   -714.89583   0.81895482   -1589.6124    1686.8825    -320.7917   -1156.3597   -667.53609   -196.75374   -167.94453    78.402407    293.11938 
299200000    2.992e+08    287.57487    107159.33   -989.77766   0.81895482   -1607.7948    1605.8707   -902.63454   -1728.0297   -338.66879   -320.07136    6.4373875    437.77062    287.49454 
299300000    2.993e+08    290.31226    107159.33   -598.04828   0.81895482   -1570.6364    1673.6196    341.45237    -1310.643   -824.95425   -451.42169   -394.45635   -238.10613    290.23368 
299400000    2.994e+08    295.03041    107159.33    24.198535   0.81895482   -1612.8518    1684.1299   -65.377863    -153.6071    291.58057   -741.66414    636.48594   -533.12705    294.95081 
299500000    2.995e+08    293.63427    107159.33   -293.94841   0.81895482   -1667.8471    1613.5326   -85.682557   -328.55984   -467.60282   -627.55741   -55.125681   -112.90039    293.55532 
299600000    2.996e+08    292.66906    107159.33    15.372972   0.81895482   -1609.8163     1660.777    81.375401   -23.772602   -11.483884    621.66889   -603.36696    178.05411    292.58937 
299700000    2.997e+08    289.64365    107159.33    53.686375   0.81895482   -1575.0953     1661.689     255.0293    22.117767   -116.08794   -15.252342   -11.907544    30.096818    289.56449 
299800000    2.998e+08    296.78276    107159.33    -663.3014   0.81895482    -1603.563    1713.0012   -399.37881    -819.2334   -771.29198    78.996009   -205.18611    229.01497    296.70334 
299900000    2.999e+08    284.77278    107159.33     312.7092   0.81895482   -1658.7838    1523.5683    546.03644    86.970372     305.1208   -220.45714    596.18978    77.444261    284.69582 
300000000        3e+08    294.35297    107159.33      454.043   0.81895482   -1575.3785    1714.0326    785.98488    1377.4958   -801.35173     82.73448   -75.299695   -235.94161    294.27258 
Loop time of 16098.7 on 192 procs for 60000000 steps with 3750 atoms

Performance: 322.014 ns/day, 0.075 hours/ns, 3727.012 timesteps/s
99.8% CPU use with 192 MPI tasks x 1 OpenMP threads

MPI task timing breakdown:
Section |  min time  |  avg time  |  max time  |%varavg| %total
---------------------------------------------------------------
Pair    | 2098.9     | 2285       | 2522.2     | 213.8 | 14.19
Bond    | 433.05     | 448.61     | 467.86     |  37.6 |  2.79
Neigh   | 1526.2     | 1572.8     | 1616.1     |  62.7 |  9.77
Comm    | 8249.5     | 8541.3     | 8944.2     | 140.7 | 53.06
Output  | 38.478     | 38.96      | 38.964     |   0.6 |  0.24
Modify  | 2123.7     | 2387.8     | 2614       | 218.4 | 14.83
Other   |            | 824.3      |            |       |  5.12

Nlocal:    19.5312 ave 27 max 10 min
Histogram: 1 5 11 14 38 51 22 29 16 5
Nghost:    839.557 ave 875 max 804 min
Histogram: 6 7 14 35 41 33 21 17 14 4
Neighs:    1491.14 ave 2135 max 713 min
Histogram: 1 5 7 23 38 44 37 20 15 2

Total # of neighbors = 286298
Ave neighs/atom = 76.3461
Ave special neighs/atom = 6.26667
Neighbor list builds = 6614681
Dangerous builds = 0
System init for write_restart ...
Total wall time: 25:13:59
