LAMMPS (10 Feb 2015)
Read molecule SQL:
  30 atoms with 4 types
  29 bonds with 1 types
  34 angles with 1 types
  31 dihedrals with 2 types
  6 impropers with 1 types
Reading restart file ...
  restart file = 10 Feb 2015, LAMMPS = 10 Feb 2015
  triclinic box = (111.252 111.252 111.252) to (158.748 158.748 158.748) with tilt (4.12115e-13 0 0)
  3 by 4 by 4 MPI processor grid
  3750 atoms
  3625 bonds
  4250 angles
  3875 dihedrals
  750 impropers
250 atoms in group endatoms
60 atoms in group samplechains
Resetting global state of Fix shear1 Style nvt/sllod from restart file info
Neighbor list info ...
  1 neighbor list requests
  update every 1 steps, delay 0 steps, check yes
  master list distance cutoff = 10.3
Setting up run ...
Memory usage per processor = 4.69566 Mbytes
Step dummytim Temp Volume Press Density PotEng TotEng Pxx Pyy Pzz Pxy Pyz Pxz myT 
1500000000      1.5e+09    293.30406       107143   -64.253021   0.81907956   -955.29463    2322.3949    478.99548   -475.30251   -196.45203    81.451656   -23.011764   -328.38091    293.31755 
1500100000   1.5001e+09    296.46129       107143    99.482751   0.81907956   -1007.0319    2305.9398    1475.3924   -933.33437   -243.60976   -298.93063   -67.615007     359.0429    296.47422 
1500200000   1.5002e+09    294.64948       107143    272.25598   0.81907956   -1009.6705    2283.0541   -8.5001422    1085.4749   -260.20683    559.92545    -348.0035    28.154294    294.66327 
1500300000   1.5003e+09    288.17868       107143    114.97831   0.81907956   -1018.7798    2201.6333    -278.6031    404.76988    218.76816   -916.07345    60.431419   -543.98552    288.19332 
1500400000   1.5004e+09     290.4378       107143    410.66763   0.81907956   -922.60506    2323.0538    820.47938    612.30573   -200.78221   -463.42201    230.62729   -174.18025    290.45147 
1500500000   1.5005e+09    286.43406       107143    137.84449   0.81907956   -983.71278    2217.2041    507.94794   -105.51311    11.098658   -709.36347    62.913146   -885.38388    286.44778 
1500600000   1.5006e+09    289.58061       107143   -104.75088   0.81907956   -948.31903    2287.7608   -789.47881    413.42918    61.796974    492.37497   -39.075796   -157.31707    289.59455 
1500700000   1.5007e+09    294.81181       107143    308.78093   0.81907956   -1032.1385    2262.4003     449.7411    229.78441    246.81728   -125.63371    488.08374   -124.35968    294.82602 
1500800000   1.5008e+09    291.43219       107143    409.22228   0.81907956   -1029.4253     2227.346    659.43635   -281.41528    849.64576    39.748111    194.81628   -598.56291    291.44578 
1500900000   1.5009e+09    293.80331       107143    257.74585   0.81907956   -1048.2825    2234.9862    441.16898    176.96742    155.10116   -891.46737    468.91096    -360.0587    293.81677 
1501000000    1.501e+09    289.66043       107143    79.617859   0.81907956   -944.21463    2292.7572    982.18934    164.77726   -908.11302    950.48691   -109.53472   -49.760525    289.67397 
1501100000   1.5011e+09    301.79894       107143    814.96314   0.81907956   -953.09647    2419.5239    1049.2213    772.17197    623.49617    147.29781    485.94778   -278.93899    301.81355 
1501200000   1.5012e+09    293.42016       107143   -507.24981   0.81907956   -1087.9601    2191.0268    180.54131   -1089.6241   -612.66667   -534.51396   -6.1381334    497.88974    293.43335 
1501300000   1.5013e+09    292.22089       107143   -992.82674   0.81907956   -970.67124    2294.9139   -654.61415    -1229.937   -1093.9291    57.341657    463.85374     450.6629    292.23428 
1501400000   1.5014e+09    287.49297       107143   -355.38002   0.81907956   -963.30233     2249.448   -854.18476    516.53603   -728.49133    -368.3618    13.857317    385.74907    287.50659 
1501500000   1.5015e+09       292.64       107143   -539.24419   0.81907956   -966.00535    2304.2633   -97.065846   -2064.6987    544.03198    -863.0488    7.2705625   -212.58643    292.65422 
1501600000   1.5016e+09    298.69803       107143   -431.34229   0.81907956   -965.80307    2372.1644   -325.22373   -430.59751   -538.20562   -173.26339    390.76856     195.4166    298.71114 
1501700000   1.5017e+09    292.74031       107143    183.87185   0.81907956    -923.1183    2348.2713    214.67129    660.94391   -323.99964    13.814051    33.875812    438.67457    292.75373 
1501800000   1.5018e+09    294.79062       107143   -27.489095   0.81907956   -1035.4426    2258.8593   -124.96799    274.82605   -232.32534   -668.68244    108.03772   -621.30977    294.80453 
1501900000   1.5019e+09    287.23287       107143    684.11788   0.81907956   -961.24919    2248.5945    1056.6666    1090.7436   -95.056597   -228.23881   -155.26328    379.45524    287.24642 
1502000000    1.502e+09    288.12644       107143    284.16576   0.81907956   -1054.4038    2165.4255       696.45    536.76084   -380.71355   -494.71622    162.42282   -328.74434    288.14034 
1502100000   1.5021e+09     287.8277       107143    328.42474   0.81907956   -975.30347    2241.1875    1367.5787   -642.65564    260.35111   -236.33277    390.09286    298.52701    287.84209 
1502200000   1.5022e+09    284.64026       107143   -799.95774   0.81907956   -989.97882    2190.8922   -893.97913   -369.36301   -1136.5311    272.40942     390.2056    -213.3298    284.65378 
1502300000   1.5023e+09    296.20333       107143   -104.24347   0.81907956   -963.58233    2346.5067   -99.197009   -313.47575    99.942346   -512.64357    308.94432    512.13628    296.21673 
1502400000   1.5024e+09     295.3559       107143    564.20294   0.81907956   -1045.0409    2255.5781    433.83867   -60.908174    1319.6783   -679.38352    473.39074    233.46698    295.37022 
1502500000   1.5025e+09    289.06742       107143   -604.93164   0.81907956   -1077.1064    2153.2384    321.47712    -1542.006   -594.26601    304.03358   -179.06991   -177.16294    289.08062 
1502600000   1.5026e+09    293.48936       107143    -123.3754   0.81907956   -958.69198    2321.0683   -284.44653   -122.96395    37.284271    453.67398   -236.02563    598.18353    293.50364 
1502700000   1.5027e+09    285.72774       107143   -326.41098   0.81907956   -1002.0132    2191.0105   -411.16167   -609.25672    41.185428    755.50439   -677.83372   -168.33149    285.74204 
1502800000   1.5028e+09     290.6897       107143   -100.45788   0.81907956   -882.12949    2366.3444    1033.6274   -774.43735    -560.5637    433.50668    190.35526    -660.3486    290.70327 
1502900000   1.5029e+09    296.59248       107143   -997.08538   0.81907956    -1043.585    2270.8529   -716.79777   -859.11013   -1415.3482    293.23749    204.32158   -340.46632    296.60632 
1503000000    1.503e+09    290.01066       107143   -160.70558   0.81907956   -1003.1921    2237.6936   -74.078826   -871.28804    463.25013    184.39783    35.750262    501.18916    290.02407 
1503100000   1.5031e+09      290.205       107143   -119.50245   0.81907956   -993.90001    2249.1574   -102.34646    485.84738   -742.00829    -877.5605    253.43629    51.390266    290.21871 
1503200000   1.5032e+09    287.01784       107143   -72.737331   0.81907956   -985.69091    2221.7498   -235.01955   -70.563422    87.370978   -116.61493    132.60381   -65.757574    287.03069 
1503300000   1.5033e+09    297.76014       107143   -132.00049   0.81907956   -985.51359    2341.9729    195.30618    48.895442    -640.2031   -409.34043   -630.55119   -234.23161     297.7742 
1503400000   1.5034e+09    293.21068       107143    -626.6222   0.81907956   -955.69265    2320.9534   -435.31407   -656.90678   -787.64574    197.85644   -183.76201   -180.52861    293.22492 
1503500000   1.5035e+09     292.0937       107143    513.76386   0.81907956   -911.41641    2352.7473    1072.8453   -308.60714    777.05343   -43.192859    98.764986       110.71    292.10819 
1503600000   1.5036e+09    300.25811       107143   -506.20237   0.81907956   -1039.7727    2315.6287    -79.97269   -765.66216   -672.97225    27.550279   -216.21078   -266.41084    300.27271 
1503700000   1.5037e+09    291.64414       107143    261.43269   0.81907956    -975.4913    2283.6485    425.92508    301.38061    56.992385    546.27187    -370.4138   -197.34843    291.65728 
1503800000   1.5038e+09     291.8324       107143   -351.62695   0.81907956   -1064.9176     2196.326   -193.27349   -264.02287   -597.58448    16.436318    51.416869    422.56711    291.84561 
1503900000   1.5039e+09    280.29305       107143    388.20132   0.81907956   -1065.6033    2066.6874    1247.5845    42.490372   -125.47087   -295.15009    194.05873    -21.80192    280.30659 
1504000000    1.504e+09    296.47855       107143   -464.43196   0.81907956   -1002.5594    2310.6053   -102.59856   -1046.2786   -244.41867    -503.9863    503.52399    94.675627    296.49184 
1504100000   1.5041e+09    297.22886       107143   -190.29691   0.81907956   -870.58878    2450.9606   -112.67132    445.94583   -904.16524   -154.86645   -154.27489    322.81068    297.24294 
1504200000   1.5042e+09    292.29069       107143    -33.45643   0.81907956   -1007.2779    2259.0872   -689.05717    948.68972   -360.00185   -391.31777    85.471958    124.03165    292.30491 
1504300000   1.5043e+09    302.89366       107143   -130.71011   0.81907956   -943.65555    2441.1984   -52.741745   -375.57934    36.190753    237.34093   -460.25796   -284.42911    302.90757 
1504400000   1.5044e+09    292.78917       107143    271.07067   0.81907956   -972.30887    2299.6268    83.724734    65.895542    663.59174    153.25167   -575.30421   -19.167739     292.8033 
1504500000   1.5045e+09    291.50929       107143   -80.342153   0.81907956   -989.65432    2267.9785   -88.705206    366.67295   -518.99421    95.952462    -743.4703   -24.673895    291.52366 
1504600000   1.5046e+09    286.98329       107143    -482.0154   0.81907956   -998.06724    2208.9874   -706.08401   -837.56338    97.601199   -346.59522   -228.58487    280.82064    286.99709 
1504700000   1.5047e+09    299.88863       107143   -469.26495   0.81907956   -1030.3707    2320.9018   -1276.1088   -403.09197     271.4059   -161.43307    130.85395   -726.25374    299.90236 
1504800000   1.5048e+09    292.45018       107143   -58.490097   0.81907956    -955.3161    2312.8313   -369.80065    477.52983   -283.19947   -246.83464   -599.62775    24.279685    292.46369 
1504900000   1.5049e+09     296.4996       107143   -213.37769   0.81907956   -925.11375    2388.2862     396.2834   -330.33893   -706.07754    386.90285   -386.75188   -248.61877    296.51423 
1505000000    1.505e+09    293.69014       107143   -174.54592   0.81907956   -917.80626    2364.1977    90.242717    301.84021   -915.72068    176.33583    231.45515   -39.659443    293.70413 
1505100000   1.5051e+09     298.0363       107143   -329.34683   0.81907956    -988.3119    2342.2607    115.20034   -1016.6195   -86.621349   -583.77715    465.53224   -568.76173    298.04969 
1505200000   1.5052e+09    296.80586       107143   -838.97409   0.81907956   -970.10057    2346.7218   -800.15575   -897.12321    -819.6433   -300.78191    421.58557   -394.73358    296.82006 
1505300000   1.5053e+09    294.46094       107143    546.57144   0.81907956   -1035.2793    2255.3385    154.69912    908.28554    576.72967   -154.78745   -328.58059   -290.81558    294.47518 
1505400000   1.5054e+09    301.59827       107143    102.39279   0.81907956     -928.772    2441.6059    1.3256764    377.52284   -71.670138   -198.25416    147.19256   -287.42094    301.61253 
1505500000   1.5055e+09    294.93608       107143    -165.0281   0.81907956   -990.88026    2305.0472     122.0677   -446.67765   -170.47435    346.12611   -519.32993    599.70445    294.94953 
1505600000   1.5056e+09    291.66675       107143   -322.21046   0.81907956   -1013.5564    2245.8362    751.39982   -1345.7636   -372.26759    345.51785    335.37623    161.25311    291.67946 
1505700000   1.5057e+09    287.67407       107143     118.5739   0.81907956   -927.65829    2287.1158    -498.4029    178.15842    675.96618   -78.038465     629.8179    451.33205    287.68798 
1505800000   1.5058e+09    293.20073       107143    -19.31956   0.81907956   -1042.4758     2234.059   -12.941012   -428.29899    383.28133     337.8874     294.5734   -121.35523    293.21453 
1505900000   1.5059e+09    294.58016       107143   -137.65595   0.81907956   -997.12751    2294.8225    245.29622   -571.72663    -86.53743   -281.97582   -497.54455    281.61246    294.59468 
1506000000    1.506e+09    292.40735       107143   -36.300523   0.81907956   -954.67031    2312.9985   -451.11875    676.80714   -334.58996   -684.93996   -219.46587   -448.10191    292.42103 
1506100000   1.5061e+09    297.50275       107143   -1087.6874   0.81907956   -944.50619    2380.1039    105.29385   -1340.9741   -2027.3821    202.60578   -150.32699    929.48388    297.51729 
1506200000   1.5062e+09    294.86986       107143    396.82751   0.81907956   -1010.1653    2285.0222    993.95799    143.40981    53.114718   -547.43909    137.87092    134.85181    294.88382 
1506300000   1.5063e+09    295.17995       107143    825.79957   0.81907956   -1039.4855    2259.1672    384.66733    1149.3815    943.34987    233.54743     221.4533   -31.264018    295.19305 
1506400000   1.5064e+09    288.60775       107143     809.2122   0.81907956   -1033.6477    2191.5604    1458.7854    517.78399    451.06725    490.44608   -469.61002   -179.57304    288.62133 
1506500000   1.5065e+09    297.00977       107143    1528.8336   0.81907956   -979.11346    2339.9876    1239.6556    1407.3706    1939.4745   -387.48759    64.794867   -66.340349    297.02331 
1506600000   1.5066e+09    294.55649       107143    595.76934   0.81907956   -959.44411    2332.2414    1157.0317    256.32511     373.9512   -732.81303    29.420219    866.99525    294.57077 
1506700000   1.5067e+09    301.20603       107143   -449.82447   0.81907956   -1009.3009    2356.6936   -820.25237   -852.27546    323.05442   -494.27264   -133.53195    340.33784    301.21981 
1506800000   1.5068e+09    292.95923       107143    37.314255   0.81907956   -992.89941    2280.9367   -524.62991    233.36663    403.20605   -261.50173   -320.31067    331.59626    292.97364 
1506900000   1.5069e+09    291.86055       107143   -148.62433   0.81907956   -908.31772    2353.2406   -278.82399   -528.87608    361.82707   -292.07791   -365.35803     19.72306    291.87529 
1507000000    1.507e+09    288.11255       107143    -449.9341   0.81907956   -1013.7665    2205.9076    -482.5573   -813.16736   -54.077654     487.0193    546.67255   -219.45992    288.12652 
1507100000   1.5071e+09    296.33882       107143   -437.88449   0.81907956   -940.29691    2371.3063   -682.55902   -405.00127   -226.09317    -149.2202   -635.37075   -698.91407    296.35352 
1507200000   1.5072e+09    302.65242       107143    52.769386   0.81907956   -980.61393    2401.5441   -118.20097    564.33737   -287.82824   -167.55239   -503.56295    399.54765    302.66663 
1507300000   1.5073e+09    291.73508       107143    1194.8723   0.81907956   -877.82089    2382.3352    936.48665    1235.3511     1412.779   -1025.1613   -241.23776   -159.33384    291.74911 
1507400000   1.5074e+09    296.87648       107143    91.235175   0.81907956   -1011.2781    2306.3334   -170.76141   -148.56924    593.03617   -740.59259    -158.7106    309.38307    296.89052 
1507500000   1.5075e+09      289.815       107143   -1082.4835   0.81907956   -1024.5422     2214.157   -1736.4392   -536.87886   -974.13231   -569.52229    313.32496     248.1367    289.82768 
1507600000   1.5076e+09    293.90382       107143    438.81473   0.81907956   -937.85154    2346.5404    967.61895    589.96243   -241.13719    693.50061   -502.90982    289.88198    293.91777 
1507700000   1.5077e+09    292.93256       107143   -599.29629   0.81907956   -923.63819    2349.8998    -49.73912   -1220.6692   -527.48051    135.77825    19.405011    255.78191    292.94612 
1507800000   1.5078e+09    298.01285       107143       128.52   0.81907956   -985.88147     2344.429   -358.50491    801.68237   -57.617469   -241.57765     4.453563   -315.62749    298.02618 
1507900000   1.5079e+09    296.86118       107143    726.38699   0.81907956   -896.39306    2421.0475    790.99825    1021.5239    366.63878   -450.24351   -180.17418   -75.872449    296.87652 
1508000000    1.508e+09    290.05631       107143     457.2018   0.81907956   -1013.6706    2227.7252      793.996    617.26379   -39.654387    723.48168    498.08466    335.13419    290.07033 
1508100000   1.5081e+09    292.94334       107143   -578.39933   0.81907956   -970.32893    2303.3295   -1280.1791     31.40563   -486.42448    379.44166    728.34952    19.750818     292.9566 
1508200000   1.5082e+09    297.15262       107143   -184.14161   0.81907956   -1013.5395    2307.1579   -110.43694    58.942497   -500.93038    364.88873   -134.92591   -218.75144    297.16615 
1508300000   1.5083e+09    296.50137       107143    458.81606   0.81907956   -1022.7875    2290.6322    365.11106    1100.7081   -89.370993    369.50946    719.25158   -93.479252    296.51477 
1508400000   1.5084e+09    293.47771       107143    290.61037   0.81907956   -987.80213     2291.828    888.77136    471.75802   -488.69828    356.91345      148.289    -72.34995    293.49177 
1508500000   1.5085e+09    294.07621       107143   -250.50293   0.81907956   -942.89493    2343.4234    139.72738   -536.69808   -354.53809    317.76055    847.87706    -18.09724    294.09039 
1508600000   1.5086e+09    288.64153       107143    665.15851   0.81907956   -975.18069    2250.4048    472.37817    384.73789    1138.3595    22.650389    591.34333   -392.29363    288.65492 
1508700000   1.5087e+09    296.42154       107143   -371.81016   0.81907956   -971.02846    2341.4992    330.83911   -1008.9813   -437.28829    151.47968   -395.82427     149.8891    296.43609 
1508800000   1.5088e+09    287.74384       107143   -322.80902   0.81907956   -952.16342    2263.3904    125.30122   -878.74196   -214.98633   -282.01802   -57.747888    352.51757    287.75755 
1508900000   1.5089e+09    296.85964       107143    139.93011   0.81907956   -1019.2839    2298.1395    533.50089    95.541605   -209.25215    162.84766   -108.60327    651.98687    296.87306 
1509000000    1.509e+09    295.31942       107143   -286.35462   0.81907956   -900.18863    2400.0226    -107.9945    -207.8196   -543.24978    226.84691    870.06914   -143.51436    295.33405 
1509100000   1.5091e+09    288.76329       107143    20.853525   0.81907956   -954.75043    2272.1957   -243.54168    139.28708    166.81517   -268.92489   -504.78129   -156.46374     288.7774 
1509200000   1.5092e+09    289.05472       107143   -390.12399   0.81907956   -974.84938    2255.3535     108.5067   -863.95712   -414.92155    830.01223   -322.38209    401.68934    289.06759 
1509300000   1.5093e+09    293.35415       107143   -68.673857   0.81907956   -953.16418    2325.0851   -617.76046    757.71013   -345.97124    589.64274    176.66868    566.81058      293.368 
1509400000   1.5094e+09    296.51686       107143   -274.80801   0.81907956   -1040.9731    2272.6197    832.06673   -832.68195   -823.80882    185.78866    226.44396   -18.791333    296.53056 
1509500000   1.5095e+09    290.93799       107143      459.844   0.81907956   -1073.4957    2177.7529    725.62092    371.29217    282.61891   -123.66609   -378.91054   -344.89152    290.95148 
1509600000   1.5096e+09    292.39576       107143     579.0465   0.81907956   -1007.7809    2259.7583    1289.9617    64.064436    383.11339    -143.1753    481.62208    550.11977    292.40943 
1509700000   1.5097e+09    296.01496       107143   -143.11064   0.81907956   -1029.0677    2278.9163    54.075989   -502.08711    18.679189   -542.53846   -435.76343   -284.46674    296.02889 
1509800000   1.5098e+09    295.88094       107143    461.51262   0.81907956    -1064.768    2241.7183    1148.7181    181.20319    54.616559   -269.86393   -221.12947   -63.534389    295.89474 
1509900000   1.5099e+09    288.08676       107143   -452.04903   0.81907956   -965.89786    2253.4881   -397.80968   -65.385167   -892.95225   -341.74344   -19.286621   -22.390512    288.10016 
1510000000     1.51e+09     289.3669       107143    107.77426   0.81907956   -1104.3396     2129.352    117.85188    179.96899    25.501903   -157.93517    -29.98685   -105.40842    289.38163 
1510100000   1.5101e+09    291.89128       107143   -437.72282   0.81907956   -1026.6941    2235.2075   -600.94705   -244.37987   -467.84154    141.16871   -440.81706   -537.23317    291.90595 
1510200000   1.5102e+09      290.833       107143   -256.29108   0.81907956   -1034.7454    2215.3299   -1335.2729    427.31762    139.08205   -505.38756   -634.22226   -10.658534    290.84641 
1510300000   1.5103e+09    293.24921       107143     465.1903   0.81907956   -951.72585    2325.3508   -3.9926417    934.37636    465.18719    364.69857    -705.0161    -233.2305    293.26335 
1510400000   1.5104e+09    289.06931       107143   -664.48882   0.81907956   -1042.1415    2188.2245   -498.04884    27.239706   -1522.6573   -484.68197    112.89706     8.995386    289.08295 
1510500000   1.5105e+09    286.65126       107143    316.43278   0.81907956   -978.84626    2224.4979    69.195402    757.69145    122.41149   -415.93503    505.02567     76.38868    286.66449 
1510600000   1.5106e+09    293.88556       107143   -960.00698   0.81907956   -1065.2239     2218.964    324.20646   -1174.4696   -2029.7578    495.66444    209.18268    284.87165    293.89921 
1510700000   1.5107e+09    294.06546       107143    -326.4278   0.81907956   -987.10819    2299.0901   -304.15718    715.59462   -1390.7208    34.257139    720.47005    188.10104      294.079 
1510800000   1.5108e+09    294.02045       107143     116.0538   0.81907956    -1036.014    2249.6812    446.54722    167.59749   -265.98332    426.90905    292.57067     238.9011    294.03395 
1510900000   1.5109e+09     292.1683       107143   -447.31241   0.81907956   -982.53398    2282.4634   -532.15845     -519.427   -290.35178    46.865592   -374.60097    54.342072    292.18199 
1511000000    1.511e+09     292.9177       107143   -66.723622   0.81907956     -968.101    2305.2709   -370.61628    312.53592   -142.09051    242.16575    420.14491     259.6579    292.93213 
1511100000   1.5111e+09    296.27846       107143   -690.89903   0.81907956   -1048.1619    2262.7668    -1114.832   -163.99343   -793.87171   -249.31166    28.954531    676.62196    296.29244 
1511200000   1.5112e+09    302.17315       107143   -56.289447   0.81907956   -1067.0319    2309.7702    199.08278    243.37604   -611.32716   -425.07391    10.218258    417.76498     302.1876 
1511300000   1.5113e+09    288.98643       107143   -295.69437   0.81907956   -956.23056    2273.2093    772.48092   -919.98656   -739.57747   0.12129765   -155.99058    173.70272    289.00001 
1511400000   1.5114e+09    293.92771       107143   -663.94919   0.81907956    -966.3088    2318.3501   -694.31212   -103.07114   -1194.4643   -94.163267    113.88286    35.072833    293.94143 
1511500000   1.5115e+09    293.27287       107143    65.717398   0.81907956   -1046.2198    2231.1213    487.90425   -661.45875    370.70669     -224.015   -189.89815    453.52216    293.28679 
1511600000   1.5116e+09    284.73146       107143   -1264.8105   0.81907956   -967.36042    2214.5298     -1251.73   -1561.7276   -980.97397   -272.02554    268.17692    144.41205    284.74541 
1511700000   1.5117e+09    291.12221       107143    835.51047   0.81907956   -978.80589    2274.5014    802.62779    1198.2421    505.66151   -451.92932   -419.65753   -271.07852    291.13578 
1511800000   1.5118e+09    287.91166       107143   -63.450432   0.81907956   -983.60443    2233.8247   -380.09467    32.718491    157.02489    276.48685   -91.074428    99.275764    287.92508 
1511900000   1.5119e+09    291.74343       107143   -127.30277   0.81907956   -965.63262    2294.6168       65.803   -335.36558   -112.34575    305.35599   -561.68282   -439.56296    291.75756 
1512000000    1.512e+09    291.50731       107143    90.045504   0.81907956   -985.85929    2271.7515    250.31278    691.62663    -671.8029    461.26207   -106.34485    175.59697    291.52115 
1512100000   1.5121e+09    288.57403       107143   -178.90431   0.81907956   -997.25466    2227.5766     134.9911   -878.12178    206.41774    423.82363    491.35483   -264.73979    288.58817 
1512200000   1.5122e+09    294.61563       107143   -200.99293   0.81907956   -993.01516    2299.3312   -240.61884   -146.63544   -215.72451    240.11578   -152.73935    274.65886    294.62918 
1512300000   1.5123e+09    289.45973       107143    97.445607   0.81907956   -969.36834    2265.3606   -156.74399    513.92375   -64.842935   -853.82791    189.23201   -288.91205    289.47306 
1512400000   1.5124e+09    295.73543       107143    576.97316   0.81907956   -1020.5212     2284.339    435.30172    149.07296    1146.5448   -32.299432    95.311953   -483.05638    295.74897 
1512500000   1.5125e+09    289.96462       107143    598.14634   0.81907956   -1025.4644    2214.9067    620.07717    862.13381    312.22804    356.07969    312.95317    58.446233    289.97845 
1512600000   1.5126e+09    291.27527       107143   -27.869057   0.81907956   -973.05988    2281.9578    -370.0259    333.19458   -46.775851   -359.08525   -424.15205   -768.49802    291.28902 
1512700000   1.5127e+09    297.30385       107143    780.76773   0.81907956   -972.02163    2350.3658     1996.111     905.7186   -559.52643    348.25852    73.673541   -66.132546    297.31847 
1512800000   1.5128e+09    294.22547       107143    426.78671   0.81907956   -962.83478    2325.1516    281.07495     798.2076    201.07758     129.4333    677.21713    308.87751    294.23913 
1512900000   1.5129e+09    291.92851       107143    497.40916   0.81907956   -926.09558    2336.2222    500.12195    271.79988    720.30564    260.64648     -56.1918    -145.7204    291.94266 
1513000000    1.513e+09    294.26736       107143    481.68386   0.81907956   -871.06743    2417.3871    398.50556    532.61551    513.93052   -1708.5978     184.0349    801.11417    294.28157 
1513100000   1.5131e+09    289.22585       107143    1213.3761   0.81907956   -988.88756    2243.2278    1587.8735    1431.0098    621.24495    233.96932    686.56884   -622.04988    289.24053 
1513200000   1.5132e+09    290.23687       107143    -369.1374   0.81907956   -1041.4689    2201.9446   -971.16891   -47.419083   -88.824213     919.5332   -325.64507   -66.962025    290.25054 
1513300000   1.5133e+09    286.17015       107143     189.4444   0.81907956   -1062.9761    2134.9916     53.84099    95.400347    419.09185   -358.95922   -536.98748    283.71698    286.18427 
1513400000   1.5134e+09    297.55019       107143    162.46866   0.81907956   -927.17346    2397.9669    474.61221   -19.285739    32.079507   -598.94402   -152.74744   -149.84387    297.56387 
1513500000   1.5135e+09    292.41048       107143   -95.223957   0.81907956   -973.46717    2294.2365    262.98894   -1295.5882    746.92736    828.43965   -22.385967   -666.00547      292.425 
1513600000   1.5136e+09    295.46115       107143    281.90869   0.81907956    -921.6889    2380.1062    781.66289    -298.7535    362.81669    155.39676    103.95555    218.17559    295.47461 
1513700000   1.5137e+09    292.31953       107143    30.574554   0.81907956   -986.20051    2280.4868   -1131.9347    1007.5952    216.06324    490.16762    398.68599    568.09586    292.33337 
1513800000   1.5138e+09    290.20323       107143   -270.73457   0.81907956   -970.57778    2272.4598   -300.89848   -151.98357   -359.32168     120.1073    69.521518    549.87428    290.21714 
1513900000   1.5139e+09    296.49742       107143   -11.316887   0.81907956   -942.18574    2371.1898    792.92358    33.708667    -860.5829   -87.264806     529.4393    214.49884    296.51241 
1514000000    1.514e+09    289.88356       107143   -305.77708   0.81907956   -1038.2226    2201.2426    519.55281   -834.01619   -602.86787   -176.37517    706.58365    299.70824    289.89839 
1514100000   1.5141e+09    293.17012       107143    731.06171   0.81907956   -994.40765    2281.7851    845.32579    831.59314     516.2662    147.09371    372.87252     166.5924    293.18269 
1514200000   1.5142e+09    292.47251       107143   -167.83733   0.81907956   -1068.8245    2199.5725   -535.70531   -351.26065    383.45398    384.95348     205.5511   -350.94189    292.48567 
1514300000   1.5143e+09    288.37182       107143   -451.48763   0.81907956   -1048.9459    2173.6256   -212.71618   -483.87407   -657.87265    2.2136812   -22.171334    3.2218386    288.38574 
1514400000   1.5144e+09    301.29455       107143    105.52223   0.81907956   -1009.0043    2357.9794   -276.48746   -62.385503    655.43965    23.703699    -558.3487     69.71749    301.30718 
1514500000   1.5145e+09    302.96631       107143    406.99661   0.81907956   -971.13102    2414.5347     474.5899    539.11479    207.28514   -88.667514   -193.76592    416.74446     302.9805 
1514600000   1.5146e+09    279.04691       107143    205.82294   0.81907956   -993.00185    2125.3632    257.46318    494.99079   -134.98514   -785.83484   -335.01854     324.3106     279.0616 
1514700000   1.5147e+09    288.87491       107143    600.17301   0.81907956   -959.03097    2269.1626    1312.5071    60.105771    427.90615   -243.97587   -65.590576    510.74403     288.8875 
1514800000   1.5148e+09    295.23162       107143   -377.55115   0.81907956   -987.87321     2311.357   -329.98495   -109.89854   -692.76997   -192.02164    284.34017    212.70122    295.24526 
1514900000   1.5149e+09    286.74198       107143    124.45576   0.81907956   -965.24828    2239.1097    1154.2156   -591.53311   -189.31516   -121.33833    301.76402   -386.32376    286.75534 
1515000000    1.515e+09     292.6583       107143    137.08099   0.81907956   -1016.8296    2253.6435    307.28926    413.38637   -309.43267    42.122537    660.92843    91.695898    292.67169 
1515100000   1.5151e+09    292.90855       107143   -448.18903   0.81907956   -1009.6536    2263.6161   -546.16925   -657.54937   -140.84847    432.01896    424.22367   -79.147195    292.92212 
1515200000   1.5152e+09    297.18335       107143    74.629146   0.81907956    -979.1987    2341.8421    332.06278   -456.84984    348.67451     61.82604    313.90932    117.54458    297.19715 
1515300000   1.5153e+09    292.54809       107143    387.66347   0.81907956   -955.60369    2313.6379     66.08086   -501.62527    1598.5348   -251.26554   -41.915837   -382.25164    292.56259 
1515400000   1.5154e+09    293.97769       107143   -481.00847   0.81907956   -963.12286    2322.0945     370.5612   -1087.8733   -725.71333    91.741844    567.40905    1110.1456     293.9916 
1515500000   1.5155e+09    301.17437       107143   -550.85054   0.81907956   -1017.0006    2348.6401   -271.94917   -613.05647   -767.54598    430.62741   -102.25807    -101.6418    301.18863 
1515600000   1.5156e+09    292.76787       107143     520.1716   0.81907956   -1005.5763    2266.1213    909.80473    401.16299    249.54708    91.443599   -311.63449    529.65783    292.78206 
1515700000   1.5157e+09    293.47679       107143    617.37044   0.81907956   -910.41469    2369.2051    796.82217    397.01694    658.27222    13.334762    675.51395    803.86463    293.49067 
1515800000   1.5158e+09    296.45258       107143    714.88259   0.81907956   -981.18902    2331.6854    961.70045    661.82608    521.12123    122.10824    529.49834   -399.79853    296.46662 
1515900000   1.5159e+09    295.46949       107143   -756.62205   0.81907956   -954.39801    2347.4903   -589.20802    -397.4159   -1283.2422   -44.643128    -468.4772   -211.22723     295.4831 
1516000000    1.516e+09    290.07043       107143   -276.68014   0.81907956   -963.97967    2277.5739   -752.06846    124.87023    -202.8422    44.812283    202.48977   -254.11864    290.08497 
1516100000   1.5161e+09     292.8547       107143   -539.66545   0.81907956   -960.99047    2311.6774   -581.72789   -1049.1411    11.872672   -330.71497   -200.70469    165.26418    292.86771 
1516200000   1.5162e+09    289.85411       107143   -854.51517   0.81907956   -990.54394    2248.5922   -643.32423   -1099.3781   -820.84315    384.55097    558.78945    104.69046    289.86735 
1516300000   1.5163e+09    292.16551       107143     668.6816   0.81907956   -901.07035    2363.8958    1453.3128    247.59396    305.13802   -609.52627    40.648359   -62.371063    292.17949 
1516400000   1.5164e+09    295.36585       107143   -37.637643   0.81907956   -962.65989    2338.0703    210.02938   -13.667669   -309.27464    389.32437    49.728989   -387.18318    295.37928 
1516500000   1.5165e+09    296.76326       107143    828.46406   0.81907956   -937.23131     2379.115    1353.8896    364.17432    767.32825   -167.32608   -504.30454    70.604994    296.77789 
1516600000   1.5166e+09    295.83795       107143   -253.22256   0.81907956   -995.32468    2310.6812    297.23102   -235.04756   -821.85114   -137.14978   -98.460743    134.95188    295.85223 
1516700000   1.5167e+09    291.36395       107143    750.43671   0.81907956   -954.74527    2301.2635    956.91881   -126.72154    1421.1128    64.168383    393.26439     634.7174    291.37745 
1516800000   1.5168e+09    300.48076       107143   -322.29686   0.81907956   -990.16875    2367.7208   -602.02569   -517.29506    152.43017     213.5185    865.53508   -302.18261    300.49469 
1516900000   1.5169e+09    291.60177       107143    697.52565   0.81907956   -902.14001    2356.5264    999.72417    794.75204    298.10074    298.43071   -823.47954    363.21321    291.61576 
1517000000    1.517e+09    293.42621       107143    411.35867   0.81907956   -908.28611    2370.7685      237.578    7.5744181    988.92359    60.491858     361.5096    104.26364    293.44007 
1517100000   1.5171e+09    295.06191       107143   -400.19314   0.81907956   -1011.9123    2285.4213   -1190.7197   -406.66704    396.80736    -92.10054    103.37362   -941.82706    295.07598 
1517200000   1.5172e+09    296.72781       107143   -131.08846   0.81907956   -943.75421     2372.196    205.38672   -271.24338   -327.40871   -298.41903   -603.73899    411.00845    296.74224 
1517300000   1.5173e+09    289.67162       107143    316.58891   0.81907956   -991.68184    2245.4149    440.82481    255.52581    253.41611    522.57365    535.11473    407.38309    289.68615 
1517400000   1.5174e+09    293.53453       107143    259.82662   0.81907956   -965.21137    2315.0537    806.80003   -188.10394    160.78377    -270.9592   -105.10135    129.68647    293.54784 
1517500000   1.5175e+09    290.25857       107143   -73.519663   0.81907956   -989.95682    2253.6992      -12.335   -247.53277    39.308783   -213.57849    142.69877   -412.23599    290.27203 
1517600000   1.5176e+09    292.63323       107143   -273.16691   0.81907956   -943.70399    2326.4889    305.50833   -754.26057   -370.74848    493.21244    98.131724   -714.21813    292.64638 
1517700000   1.5177e+09    292.43585       107143    -299.0854   0.81907956   -920.81452    2347.1727    197.18091   -965.38424   -129.05287   -613.62107   -633.76408     64.49791     292.4495 
1517800000   1.5178e+09    284.27922       107143    82.628906   0.81907956   -940.81807    2236.0184    31.732543   -50.989106    267.14328      390.814     100.1785    325.51139    284.29271 
1517900000   1.5179e+09    290.39007       107143    304.64165   0.81907956   -951.01737    2294.1082    273.28356    129.56602    511.07538    318.28615    292.21177    491.01579    290.40348 
1518000000    1.518e+09    288.11281       107143   -336.68988   0.81907956   -980.24727    2239.4298    304.69792   -762.36436    -552.4032    172.70009    342.32592   -89.836457    288.12696 
1518100000   1.5181e+09    293.59562       107143    273.05759   0.81907956   -896.93163    2384.0161    534.91352    424.77683   -140.51758    891.49445    12.018139     323.3925    293.60968 
1518200000   1.5182e+09    291.74549       107143    285.76944   0.81907956   -975.73663    2284.5358    256.72339    536.71291    63.872034     52.74714    181.10951   -395.48979    291.75882 
1518300000   1.5183e+09    291.43135       107143   -679.12999   0.81907956   -1035.6544    2221.1075    -1193.573   -557.59982   -286.21712    -132.6988    477.00242    147.41123    291.44407 
1518400000   1.5184e+09    297.88372       107143    334.84911   0.81907956   -998.01969    2330.8478    783.57066    246.62555   -25.648861    131.48184    677.90852   -3.4749243    297.89807 
1518500000   1.5185e+09    294.31096       107143   -134.73073   0.81907956   -974.25303    2314.6887    169.00108    283.06708   -856.26034    530.76674   -26.793832    -436.1795    294.32476 
1518600000   1.5186e+09    283.03398       107143    258.17239   0.81907956   -1002.5301    2160.3907    445.06123   -2.6854063    332.14136   -157.27561   -240.52064   -4.0412172    283.04828 
1518700000   1.5187e+09    297.82376       107143   -470.59465   0.81907956   -883.31161    2444.8858    360.26301   -836.82645    -935.2205   -98.885014    1160.0284   -155.23413    297.83779 
1518800000   1.5188e+09    293.80101       107143   -318.84355   0.81907956   -950.86706     2332.376   -90.656897   -122.07243   -743.80131   -148.86646   -350.90873    124.61022    293.81569 
1518900000   1.5189e+09    293.94382       107143   -605.86814   0.81907956    -995.7924    2289.0465   -222.03057   -489.35775   -1106.2161    502.94393   -614.36854   -409.71065    293.95758 
1519000000    1.519e+09    291.69081       107143    27.153848   0.81907956   -995.60835    2264.0531    489.42198   -75.274881   -332.68555   -969.29763    6.7766424    32.848872    291.70394 
1519100000   1.5191e+09    295.86527       107143   -222.56477   0.81907956   -974.36619     2331.945   -492.00508   -3.5574858   -172.13175   -38.933955   -151.56972    -0.498999    295.87889 
1519200000   1.5192e+09     300.2293       107143    650.36483   0.81907956   -992.23259     2362.847    1305.2117    302.41889    343.46387   -143.97424   -415.72461    145.39548    300.24415 
1519300000   1.5193e+09    297.28121       107143    675.25431   0.81907956   -959.07336    2363.0611    660.41951    185.15065    1180.1928   -93.364158    262.92764   -336.32024    297.29528 
1519400000   1.5194e+09    290.42183       107143   -158.47803   0.81907956   -1047.2538    2198.2266    196.19787   -261.80135   -409.83061    232.70194   -112.93148     -239.677    290.43605 
1519500000   1.5195e+09    288.40618       107143    523.80338   0.81907956   -936.88158    2286.0739    413.87029    806.99196    350.54789   -473.01164    218.57932    298.98071     288.4207 
1519600000   1.5196e+09    286.47134       107143   -253.14249   0.81907956   -1046.5484    2154.7851   -483.84898   -1104.6626    829.08408   -353.17456    53.393554    41.705646    286.48498 
1519700000   1.5197e+09     288.6787       107143   -18.650991   0.81907956   -984.00046    2242.0005      322.234   -276.62169   -101.56528   -84.509611    -481.5946    135.01089    288.69309 
1519800000   1.5198e+09    299.00521       107143   -13.837857   0.81907956   -1078.9828    2262.4175   -675.81046   -150.37144    784.66833    433.21002    284.49933    121.04055    299.01982 
1519900000   1.5199e+09    295.55464       107143     639.4469   0.81907956   -965.48209    2337.3579    112.55626    624.31352    1181.4709   -577.06216   -53.448197    423.98185    295.56798 
1520000000     1.52e+09    286.71404       107143   -437.51185   0.81907956   -1067.1778    2136.8678   -780.27308   -729.52227    197.25979    -107.4812    411.44335    671.08541    286.72827 
1520100000   1.5201e+09    288.66723       107143    159.93905   0.81907956   -1019.8046    2206.0681    440.97991   -323.30291    362.14016   -433.82032   -29.128031   -483.82586     288.6806 
1520200000   1.5202e+09    288.08926       107143    341.54144   0.81907956   -942.73688     2276.677     964.6692   -280.93368    340.88881    165.74158   -177.16664    341.52294    288.10221 
1520300000   1.5203e+09    299.59088       107143    168.52922   0.81907956   -988.94294    2359.0021   -237.90529    498.46747    245.02547    438.17323   -352.30211    5.1769058    299.60385 
1520400000   1.5204e+09    286.01726       107143   -155.40046   0.81907956   -1011.8645    2184.3946    189.20058    -279.9265   -375.47545    135.61786    -236.6041    1158.6652    286.03024 
1520500000   1.5205e+09    292.94494       107143     297.0596   0.81907956   -994.48615    2279.1902    -5.760127   -38.822588    935.76151   -178.23823   -205.48561    5.2941441    292.95933 
1520600000   1.5206e+09    293.88121       107143   -1525.6301   0.81907956   -1030.6859    2253.4533    -1853.971   -869.15228   -1853.7671   -229.72668    532.85227   -767.56402    293.89467 
1520700000   1.5207e+09    298.23857       107143   -295.89596   0.81907956   -1001.9802    2330.8528    291.04602   -794.21521   -384.51869   -146.76201    822.84543   -376.69902    298.25293 
1520800000   1.5208e+09     296.5448       107143    245.64013   0.81907956   -955.35671    2358.5483    325.53348    126.13558    285.25132   -4.4658313   -382.82483   -210.34029    296.55907 
1520900000   1.5209e+09    295.66072       107143    620.03835   0.81907956   -1040.3521    2263.6732    1011.4541    411.65414    437.00684    190.33203     191.4072    384.63999    295.67494 
1521000000    1.521e+09    293.46627       107143     63.76866   0.81907956   -902.92595    2376.5763   -271.32413    769.84798   -307.21787   -43.535744     144.2306    18.942797    293.47963 
1521100000   1.5211e+09    302.91806       107143    406.90762   0.81907956   -1009.7762    2375.3503    712.82766   -98.854428    606.74964   -825.92787   -43.615013   -108.57476    302.93224 
1521200000   1.5212e+09    292.19618       107143    233.99411   0.81907956   -1017.9511    2247.3578      670.437    60.406643   -28.861313   -635.45633    787.26976    811.38736    292.21051 
1521300000   1.5213e+09    284.45425       107143    1049.4639   0.81907956   -978.39765    2200.3948     1339.287    1051.6488    757.45598   -278.59656    16.891113    310.69958     284.4693 
1521400000   1.5214e+09    297.63629       107143    361.01941   0.81907956   -1000.7845    2325.3179    204.46888   -8.9949127    887.58425   -145.58304    215.78833   -356.41438      297.651 
1521500000   1.5215e+09     287.2356       107143   -643.98101   0.81907956   -898.63513     2311.239   -276.36092   -1293.1327   -362.44939    314.73057   -413.60837    39.459897    287.24965 
1521600000   1.5216e+09    288.85471       107143     956.0174   0.81907956    -973.3068     2254.661    702.84108    929.37612     1235.835    264.32436      443.806   -322.73834    288.86821 
1521700000   1.5217e+09    294.29749       107143    120.07576   0.81907956   -1011.0753    2277.7159    475.94877    -205.3345    89.613002   -138.53894   -384.24168   -210.38228    294.31128 
1521800000   1.5218e+09    297.90759       107143    528.96413   0.81907956   -1004.6483     2324.486     633.0593    642.47824    311.35484    740.05483    710.28861   -191.14671    297.92159 
1521900000   1.5219e+09    291.74155       107143    -114.9707   0.81907956   -1053.0103    2207.2182    730.81464   -814.09481   -261.63193    -47.37832    -25.77944    -151.5002      291.756 
1522000000    1.522e+09    289.58184       107143   -146.35825   0.81907956   -983.90138    2252.1922    321.51398   -392.31842    -368.2703    42.863794    310.05651   -192.49149    289.59644 
1522100000   1.5221e+09    295.74291       107143    162.96103   0.81907956   -930.58635    2374.3575     277.0871   -443.29642     655.0924   -2.9020343   -67.269978    289.63702    295.75747 
1522200000   1.5222e+09    293.81047       107143     202.2631   0.81907956   -933.61896    2349.7297     150.0009    641.07717   -184.28878   -145.68894    43.815762   -302.84382    293.82348 
1522300000   1.5223e+09    294.33722       107143   -360.13903   0.81907956   -985.34294    2303.8923    83.308779   -821.43292   -342.29293     253.6789    -149.6542    38.682667    294.35155 
1522400000   1.5224e+09    294.38034       107143   -42.296372   0.81907956   -987.93826    2301.7788    618.20954   -689.48888   -55.609773   -647.65436    156.90604    -19.54015    294.39414 
1522500000   1.5225e+09    298.06518       107143    785.83203   0.81907956   -1075.7368    2255.1585    456.47131    895.52323    1005.5016    148.31899    270.66779    1015.8544    298.07871 
1522600000   1.5226e+09     290.5426       107143   -188.28289   0.81907956   -947.00403     2299.826    596.37422   -140.81719   -1020.4057    85.082393   -465.84589   -218.09612    290.55574 
1522700000   1.5227e+09    296.81227       107143    448.47723   0.81907956   -907.71721    2409.1768    479.07078    350.52086    515.84006    303.06872    109.13776   -427.86788    296.82657 
1522800000   1.5228e+09    292.74301       107143    736.30852   0.81907956    -983.6728     2287.747    913.09571    287.99635    1007.8335    61.764377   -141.21126    84.244373    292.75666 
1522900000   1.5229e+09    291.09494       107143   -335.38064   0.81907956   -923.81002    2329.1925   -196.91704   -839.92331     30.69842    71.755176    349.04888   -392.42534    291.11003 
1523000000    1.523e+09    293.44726       107143    410.59153   0.81907956   -902.15335    2377.1365    259.02335    279.01189    693.73934   -89.214725   -28.186663   -148.38679    293.46216 
1523100000   1.5231e+09    297.97904       107143   -398.28222   0.81907956   -992.34078    2337.5919   -809.52539    129.32406   -514.64532    246.87597   -21.665053    445.96258    297.99273 
1523200000   1.5232e+09    298.04738       107143    811.01122   0.81907956   -947.96758    2382.7289    1200.1358    1275.6011   -42.703163   -33.669714   -706.96823    108.16167     298.0613 
1523300000   1.5233e+09    288.41118       107143   -442.09997   0.81907956   -904.54899    2318.4624   -436.77897   -201.39872   -688.12221   -726.93031   -32.540256    68.698041     288.4246 
1523400000   1.5234e+09    292.97975       107143    203.22798   0.81907956   -1015.0613    2259.0041    826.69572    231.14715   -448.15892    732.19142    356.28247   -224.76251    292.99368 
1523500000   1.5235e+09    293.02106       107143    906.44133   0.81907956   -976.71363    2297.8134     583.1027    599.81902    1536.4023    79.277626    317.05179   -511.62144     293.0348 
1523600000   1.5236e+09    297.79519       107143   -23.853423   0.81907956   -993.42903    2334.4491    366.81706   -193.38486   -244.99247   -163.66391    115.09605   -292.61872    297.80867 
1523700000   1.5237e+09    292.18352       107143    384.75597   0.81907956   -1067.0491    2198.1184    -441.4698     795.7059    800.03181    505.35422   -88.806773   -299.57272     292.1979 
1523800000   1.5238e+09    289.07967       107143    60.061046   0.81907956   -995.05473     2235.427    -282.1704    19.232628    443.12091    633.89316   -338.32156    -346.4118    289.09418 
1523900000   1.5239e+09    287.75404       107143   -180.32827   0.81907956   -970.98439    2244.6834   -293.94104   -131.32421   -115.71956    -132.9532    491.64585   -633.71684    287.76729 
1524000000    1.524e+09    292.26743       107143    357.04696   0.81907956   -957.12053    2308.9846    69.183276    707.21745    294.74015   -57.730779   -459.29084   -292.98699    292.28163 
1524100000   1.5241e+09    297.36087       107143   -740.51952   0.81907956   -1036.3123    2286.7123   -378.32274   -892.90875   -950.32706   -483.50312   -275.02645   -186.33546    297.37452 
1524200000   1.5242e+09    301.46464       107143   -308.01544   0.81907956   -998.28443    2370.6001    274.96406   -843.27436   -355.73602   -130.10628   -510.72041   -130.31545    301.47831 
1524300000   1.5243e+09    288.30584       107143    -172.0786   0.81907956   -915.71925     2306.115    69.501336   -658.46753    72.730408   -94.889704    1071.0413   -98.644618    288.32021 
1524400000   1.5244e+09    291.45424       107143    548.00976   0.81907956   -948.07923    2308.9384     832.8906    -52.93761    864.07631    258.34067    499.58289    367.88231    291.46831 
1524500000   1.5245e+09    299.11706       107143    444.58216   0.81907956   -1045.0482    2297.6019    400.76601   -747.88822    1680.8687    337.84231    170.68394    219.45446    299.13125 
1524600000   1.5246e+09    291.02721       107143   -598.60683   0.81907956   -1061.9648    2190.2809   -192.04338   -1048.9019   -554.87518    -403.1487     132.0355    220.38197    291.04115 
1524700000   1.5247e+09    293.46045       107143    -608.2582   0.81907956   -1055.7246    2223.7126   -519.88543   -1463.1382      158.249   -389.84391   -31.751172   -1.5574175    293.47437 
1524800000   1.5248e+09    292.95755       107143    735.29637   0.81907956   -926.83133     2346.986    927.09658    543.90294    734.88959   -269.03426   -370.49041    363.02168    292.97223 
1524900000   1.5249e+09    287.91698       107143    51.275703   0.81907956   -887.53275    2329.9559     420.4929   -15.802207   -250.86358   -449.44315   -347.45436   -629.07225    287.93096 
1525000000    1.525e+09     299.4783       107143     -410.701   0.81907956   -981.24769    2365.4394   -294.23546   -560.37529   -377.49224    671.96007    580.67683   -456.74855    299.49209 
1525100000   1.5251e+09    290.14189       107143   -174.85774   0.81907956   -1077.7941     2164.558   -682.20781    267.39636   -109.76178     286.4264    272.74618    166.61954    290.15498 
1525200000   1.5252e+09    290.96441       107143   -127.13862   0.81907956   -997.30264    2254.2412   -475.69244    195.99965   -101.72306     17.64635    323.95406   -640.31669    290.97871 
1525300000   1.5253e+09    289.88214       107143    389.52175   0.81907956   -989.02181    2250.4276    1479.7485   -638.38863    327.20541    345.28568    104.42729   -74.951212    289.89604 
1525400000   1.5254e+09    294.14255       107143    349.44849   0.81907956   -992.81609    2294.2436    919.71923     181.1012   -52.474955   -683.37375    -302.7643    354.24243    294.15656 
1525500000   1.5255e+09    291.96756       107143   -482.10102   0.81907956   -968.33355    2294.4206   -797.00488   -276.98505   -372.31314   -171.37942    60.948122    575.88004     291.9816 
1525600000   1.5256e+09    299.85485       107143    282.31473   0.81907956   -923.58791    2427.3071    674.13909    927.85274   -755.04764   -8.5019457   -157.23239    17.350114    299.86894 
1525700000   1.5257e+09    298.66886       107143   -346.74361   0.81907956   -1014.3731    2323.2684   -528.61784   -367.25982   -144.35315   -418.84015    1229.2992    126.62828    298.68199 
1525800000   1.5258e+09    293.00889       107143   -304.85036   0.81907956   -1126.1596    2148.2314   -203.69014   -274.08075   -436.78019    40.743625   -126.17773    -253.5803    293.02253 
1525900000   1.5259e+09    300.08961       107143    554.58752   0.81907956   -933.16515    2420.3533    1228.4103    12.875614     422.4767   -213.93053   -387.16132   -638.65711    300.10459 
1526000000    1.526e+09    295.03399       107143    673.36942   0.81907956    -954.8102    2342.2114    511.71227    822.35926    686.03674   -239.78106     257.0683   0.13581296    295.04734 
1526100000   1.5261e+09    297.61692       107143   -537.44314   0.81907956   -983.42916    2342.4568   -594.23228   -691.59049   -326.50665    372.46705   -42.989631   -799.68407    297.63092 
1526200000   1.5262e+09    296.24927       107143   -84.002722   0.81907956   -1064.7775    2245.8249    -347.5574    85.701168    9.8480675    234.29679    176.72842    31.079366    296.26248 
1526300000   1.5263e+09    301.31815       107143    330.56104   0.81907956    -980.7902    2386.4572     572.9838   -145.19991    563.89923     101.9012    145.70968    326.91966    301.33109 
1526400000   1.5264e+09    294.51858       107143   -580.69618   0.81907956   -860.39995     2430.862    267.56575    -798.5212   -1211.1331    695.76181    -335.1413   -774.07474    294.53324 
1526500000   1.5265e+09    290.99987       107143   -167.04964   0.81907956   -1024.4975    2227.4426   -374.44183   -493.60713    366.90003   -213.13123     136.7003   -428.00865    291.01388 
1526600000   1.5266e+09    297.07817       107143    694.24681   0.81907956   -934.75434    2385.1111    1544.2034    495.47978     43.05726    299.55306    164.02026    425.64367    297.09235 
1526700000   1.5267e+09    282.38451       107143   -8.8469541   0.81907956   -989.21608    2166.4469   -147.25871    183.07955   -62.361704   -472.99739     15.02994    118.79655    282.39849 
1526800000   1.5268e+09    296.70861       107143   -338.92663   0.81907956   -928.38498    2387.3507    352.77131   -938.39414   -431.15706    94.142374   -389.31924    187.38458    296.72285 
1526900000   1.5269e+09    290.89261       107143    782.56316   0.81907956   -974.12572    2276.6158    1472.4799    915.46355   -40.254007   -136.39645   -695.69247    87.711133    290.90632 
1527000000    1.527e+09    296.75607       107143   -175.69138   0.81907956   -1027.0281    2289.2379   -351.29289    15.421172   -191.20241    307.42575    182.07029    382.73791    296.76941 
1527100000   1.5271e+09    295.36946       107143    284.64956   0.81907956   -986.36619    2314.4043   -717.18093    1157.8759    413.25372    432.80473    -376.2504   -197.88536    295.38292 
1527200000   1.5272e+09    291.39858       107143   -153.60758   0.81907956   -923.64306    2332.7527   -520.40776   -389.74334    449.32836    541.56134    240.61209   -358.51009    291.41189 
1527300000   1.5273e+09    299.57627       107143   -212.07724   0.81907956    -977.0658    2370.7161    588.28455   -429.75268    -794.7636    -132.9036   -145.46534   -178.29015    299.59112 
1527400000   1.5274e+09    295.72401       107143   -384.19241   0.81907956   -1001.6936     2303.039    349.17094    -794.3748   -707.37338    244.58302    78.575252    -435.6423    295.73791 
1527500000   1.5275e+09    291.22325       107143    14.870359   0.81907956   -919.75306    2334.6833   -68.072051    421.47928   -308.79615   -214.05961    176.25924   -72.829762    291.23761 
1527600000   1.5276e+09     294.4892       107143   -316.00737   0.81907956   -1002.2976     2288.636    -756.2931   -327.36704    135.63803    255.80621    299.08826    85.060985    294.50286 
1527700000   1.5277e+09    293.45044       107143   -65.479097   0.81907956   -964.99882    2314.3266    104.76367   -448.03402    146.83306     61.27424    274.48531   -329.00978    293.46412 
1527800000   1.5278e+09    293.11247       107143   -523.95175   0.81907956    -1063.177    2212.3715     171.9297   -375.67405   -1368.1109   -320.16702    32.052144   -24.605566    293.12607 
1527900000   1.5279e+09    292.50204       107143    132.20456   0.81907956   -1019.8282    2248.8988     707.3548    8.4907763   -319.23191    703.60054   -541.84135   -137.54756    292.51652 
1528000000    1.528e+09    298.85713       107143    384.99799   0.81907956   -960.75045     2378.995    628.48967     137.5311     388.9732    406.40784    684.87188   -31.685035    298.87114 
1528100000   1.5281e+09    298.46449       107143    824.89271   0.81907956   -1031.3045    2304.0532    1465.7389    860.11117    148.82806   -167.57632    -225.3474    587.36642    298.47848 
1528200000   1.5282e+09    289.95714       107143    383.50214   0.81907956   -958.30868    2281.9788   -60.144939    488.64024    722.01112    18.480248   -523.47774   -216.70114    289.97154 
1528300000   1.5283e+09    289.95107       107143    328.64111   0.81907956   -977.40163    2262.8181    373.71739     942.6101   -330.40416    364.29482    419.81109    171.11775    289.96442 
1528400000   1.5284e+09    290.15774       107143   -18.930922   0.81907956   -1008.0425    2234.4867    344.56624   -270.24463   -131.11438   -316.75228     222.8389    -213.0595    290.17138 
1528500000   1.5285e+09    292.65323       107143    290.15865   0.81907956   -1020.3016    2250.1149    205.81106     377.3136    287.35129   -95.714357    -778.4043    13.198298    292.66755 
1528600000   1.5286e+09    294.84806       107143   -79.682121   0.81907956   -994.63801    2300.3058   -29.340155   -714.63109    504.92489   -357.54877    114.40634   -437.21989    294.86251 
1528700000   1.5287e+09    290.22918       107143    27.235142   0.81907956   -966.80438    2276.5232    -506.8385    540.86673    47.677199   -848.37344    367.85189   -362.24457    290.24279 
1528800000   1.5288e+09    290.65807       107143   -310.21515   0.81907956   -966.81788    2281.3026    376.98668   -542.85897   -764.77316    273.04501    20.099042   -95.193298    290.67193 
1528900000   1.5289e+09    294.92506       107143    368.13027   0.81907956     -1040.65    2255.1542    810.99726    341.89366   -48.500119    347.65458     512.4483     250.2782    294.93947 
1529000000    1.529e+09     292.7376       107143   -232.45174   0.81907956   -940.50585    2330.8534    823.63318   -801.98029   -719.00812   -260.38517   -874.71921    454.06123    292.75144 
1529100000   1.5291e+09    292.46949       107143    43.053954   0.81907956   -956.29165    2312.0715   -428.74474   -184.33001    742.23662   -61.221069    -222.9542   -62.083488    292.48424 
1529200000   1.5292e+09    295.76581       107143    82.897331   0.81907956    -1075.983    2229.2167    810.48614   -254.91693   -306.87722    10.348334    118.57215   -602.84889    295.78043 
1529300000   1.5293e+09    290.53889       107143   -228.59912   0.81907956   -977.36142    2269.4272   -856.90441   -835.97109    1007.0781    922.24599    286.97568   -318.25723    290.55274 
1529400000   1.5294e+09    293.05282       107143    756.52788   0.81907956   -944.87254    2330.0094    126.79064    1077.9181    1064.8749   -661.62929    573.36412    983.46664    293.06699 
1529500000   1.5295e+09    289.37676       107143    246.63221   0.81907956   -1014.1287     2219.673    375.35596     380.2782   -15.737519   -287.78238   -119.09048   -20.306267    289.39054 
1529600000   1.5296e+09     290.4947       107143   -289.81826   0.81907956   -949.66263    2296.6321   -352.87956    26.253166   -542.82839   -294.24595     778.8025    299.25842      290.509 
1529700000   1.5297e+09    292.76064       107143    4.2257176   0.81907956   -911.89999    2359.7169   -314.23129    214.55535    112.35309   -702.47531    54.904419   -464.01465    292.77433 
1529800000   1.5298e+09    290.40511       107143   -319.13485   0.81907956   -1057.1912    2188.1024   -368.47842   -229.90478   -359.02136   -310.26159   -319.41435    410.04406    290.41923 
1529900000   1.5299e+09    295.23058       107143    694.56084   0.81907956   -973.36671    2325.8519    1028.1611    205.78402    849.73738    344.29209    107.64684    76.944517     295.2454 
1530000000     1.53e+09    290.74496       107143   -726.76261   0.81907956   -1038.7092    2210.3822   -982.58561   -556.50571    -641.1965   -492.24218   -373.32041    186.93681     290.7582 
1530100000   1.5301e+09    287.67995       107143   -310.20529   0.81907956   -925.47852    2289.3613   -889.27932   -365.70715    324.37059    137.24674    535.28576   -675.68883    287.69469 
1530200000   1.5302e+09    290.56349       107143   -640.06623   0.81907956   -905.74028    2341.3232   -59.604335   -992.05206   -868.54228   -117.10764    152.88015    1067.1637    290.57837 
1530300000   1.5303e+09    294.10086       107143    371.88764   0.81907956     -1043.14    2243.4539    1184.1004     670.4801   -738.91756   -554.36919    455.50347    46.515035    294.11413 
1530400000   1.5304e+09    290.71803       107143    27.904075   0.81907956   -1021.2848    2227.5057    108.97344   -402.58172    377.32051   -299.98584   -446.96179   -316.62006    290.73084 
1530500000   1.5305e+09     288.8781       107143   -467.49245   0.81907956   -983.03788    2245.1913   -320.91974   -239.70174   -841.85587   -185.61795    80.373296    -545.4408    288.89226 
1530600000   1.5306e+09    292.99942       107143    139.73984   0.81907956   -896.36044    2377.9247   -460.66605    486.97708    392.90849   -303.43119    409.57868   -844.74736     293.0135 
1530700000   1.5307e+09       294.85       107143    890.53832   0.81907956    -889.2875     2405.678    1341.7597    712.96925    616.88604   -605.41819    304.36462    483.92241    294.86429 
1530800000   1.5308e+09    293.13576       107143    119.22793   0.81907956   -972.57906    2303.2297    208.08619    283.25516   -133.65757   -421.03858   -64.543587     564.8507    293.14969 
1530900000   1.5309e+09    297.97931       107143    679.55044   0.81907956   -1028.7239    2301.2118    1039.1772   -197.71649    1197.1906   -820.41801   -235.88632   -157.70568    297.99287 
1531000000    1.531e+09    294.67795       107143   -310.98423   0.81907956   -958.88528    2334.1575    36.661947   -836.02576   -133.58888    609.22483   -813.50774   -256.65985     294.6921 
1531100000   1.5311e+09    292.41902       107143    167.78399   0.81907956   -957.38041    2310.4187    255.28808   -32.489434    280.55332   -83.940948   -130.36209    153.86688    292.43286 
1531200000   1.5312e+09    288.03869       107143   -152.97092   0.81907956   -909.68329    2309.1654    728.17107   -467.21648   -719.86733   -197.18994   -377.76191    42.190128    288.05213 
1531300000   1.5313e+09    287.06008       107143    107.62301   0.81907956   -972.85283    2235.0599    658.51986   -157.34317   -178.30765   -117.82268   -347.38065    363.48386    287.07447 
1531400000   1.5314e+09    295.08621       107143   -24.499311   0.81907956   -975.07774    2322.5274   -410.19095    116.63433    220.05869   -236.01922    114.62578    264.16025    295.10052 
1531500000   1.5315e+09    294.82054       107143   -332.25809   0.81907956   -977.26377    2317.3726    20.846471   -351.39966   -666.22109    206.23653   -308.75062    -26.41322     294.8344 
1531600000   1.5316e+09    288.05606       107143    490.02148   0.81907956   -1053.2627    2165.7801    559.50164    432.29219    478.27063    181.21816   -3.6125932    46.859394    288.06932 
1531700000   1.5317e+09    289.28644       107143    71.168097   0.81907956   -1104.7017    2128.0907    5.1561699   -278.80777    487.15589   -80.747339   -626.90042   -148.03242    289.29945 
1531800000   1.5318e+09    286.48003       107143    214.33229   0.81907956   -984.12708    2217.3036    921.14741     202.9849   -481.13545    44.811055   -348.91093   -771.43361    286.49319 
1531900000   1.5319e+09    287.44659       107143    71.732534   0.81907956   -988.73451    2223.4975   -428.20114   -126.27896     769.6777    240.79352    726.37632    126.49253     287.4595 
1532000000    1.532e+09    289.73116       107143    718.46725   0.81907956   -984.85204    2252.9102   -149.30852    446.79644    1857.9138    225.42824    833.27799    283.03823    289.74564 
1532100000   1.5321e+09    291.76754       107143   -160.42968   0.81907956   -975.81891    2284.6999   -213.27746   -304.70938    36.697799    -314.8718   -413.59587   -58.503314    291.78111 
1532200000   1.5322e+09    293.80647       107143    168.68043   0.81907956   -972.59786    2310.7061    65.111123    669.80065   -228.87048    303.53993   -26.166897   -70.318081    293.82018 
1532300000   1.5323e+09    296.10336       107143   -218.43958   0.81907956   -985.30597    2323.6659    42.432818   -348.35817   -349.39341   -47.406317    595.73087    -445.9748    296.11739 
1532400000   1.5324e+09    291.82833       107143    -182.1722   0.81907956   -991.33625     2269.862   -521.30749   -562.80464    537.59552   -37.423565   -65.566413    935.94708    291.84259 
1532500000   1.5325e+09    290.68612       107143    109.81109   0.81907956   -1047.1463    2201.2877    127.34194   -285.99778     488.0891   -471.01009    1007.6939   -430.63176    290.69993 
1532600000   1.5326e+09    287.74604       107143   -102.71113   0.81907956    -928.8078    2286.7706    493.41288   -357.21451   -444.33176   -206.10391    41.155752   -600.45835    287.76072 
1532700000   1.5327e+09    292.02932       107143   -201.53979   0.81907956   -975.91597    2287.5283   -37.225188   -279.70194   -287.69225    117.64234     -431.553    226.16888    292.04424 
1532800000   1.5328e+09     298.3807       107143    643.23999   0.81907956   -853.61582    2480.8055   -5.6674872    558.25607    1377.1314    278.58475   -188.48029    432.22259    298.39514 
1532900000   1.5329e+09    291.53048       107143    357.60579   0.81907956   -987.90571     2269.964    835.89809    599.05292   -362.13363    413.94422   -603.75933   -281.25215    291.54529 
1533000000    1.533e+09    288.12095       107143    61.249609   0.81907956   -957.78606    2261.9819   -389.27173     527.7681    45.252451    139.70339   -53.864621   -216.56949    288.13472 
1533100000   1.5331e+09     285.7246       107143    -378.7507   0.81907956   -1076.0595    2116.9292   -299.19624   -777.09147   -59.964407   -208.12273    344.07884    294.63519    285.73869 
1533200000   1.5332e+09     296.0417       107143    46.706686   0.81907956   -1026.1544    2282.1285    159.25258    35.274235   -54.406753   -225.65948    291.42727     36.13239    296.05613 
1533300000   1.5333e+09    291.84505       107143    168.56327   0.81907956   -1038.9954    2222.3896    730.49661    623.85378   -848.66059   -71.389529   -406.63174   -854.30282    291.85872 
1533400000   1.5334e+09    297.54141       107143   -252.97139   0.81907956   -1048.8482     2276.194   -410.54687   -80.149851   -268.21746   -348.41205   -319.93733    -213.8223    297.55519 
1533500000   1.5335e+09    288.99838       107143   -550.63355   0.81907956    -884.6847    2344.8887   -246.54265   -122.62086   -1282.7371   -335.34659    131.55438    53.444872     289.0133 
1533600000   1.5336e+09    299.77832       107143   -5.5385639   0.81907956   -989.70097    2360.3387    130.36683   -216.72851    69.745986    261.50629   -102.62114   -427.61686    299.79126 
1533700000   1.5337e+09    288.42631       107143    50.047699   0.81907956    -940.0082    2283.1722   -309.57254   -128.05041    587.76605    473.82254    423.07529    621.15738    288.43937 
1533800000   1.5338e+09      293.944       107143   -10.162112   0.81907956   -1017.0685    2267.7723   -267.02384   -438.08437    674.62187    129.05729    180.19803    277.76586    293.95815 
1533900000   1.5339e+09    290.78468       107143    157.05113   0.81907956   -1018.1407    2231.3947    323.35566     53.74499    94.052745   -469.16515   -352.36814    393.08321    290.79718 
1534000000    1.534e+09    287.83401       107143    229.11314   0.81907956   -1062.1093    2154.4522   -38.204167    834.10378   -108.56021    272.34374    101.69007    138.38659    287.84823 
1534100000   1.5341e+09     297.8402       107143   -1171.1953   0.81907956    -1024.918    2303.4631   -1051.8738   -1329.5488   -1132.1635   -38.757563    924.11881    264.40623    297.85362 
1534200000   1.5342e+09    296.84616       107143    335.43361   0.81907956   -979.31313    2337.9595    775.07187   -522.57868    753.80762   -270.98858    213.98258    402.99108    296.86087 
1534300000   1.5343e+09    295.37182       107143   -34.470326   0.81907956   -976.33517    2324.4617    130.90949    130.11728   -364.43775   -67.029208    83.250273    630.33258    295.38621 
1534400000   1.5344e+09    294.26294       107143    123.10943   0.81907956   -1009.3553    2279.0498   -291.48102    21.816129    638.99319    68.364731   -205.89704    528.28632    294.27639 
1534500000   1.5345e+09    300.17079       107143   -453.63688   0.81907956   -962.07807    2392.3476    562.39364   -949.43261   -973.87168    491.02201     327.7361    294.74429    300.18522 
1534600000   1.5346e+09    297.86749       107143    82.257831   0.81907956   -988.08501    2340.6011    471.54646    33.934094   -258.70706    289.09443    -98.17482    117.02686    297.88153 
1534700000   1.5347e+09    287.38275       107143    276.76845   0.81907956   -934.37883    2277.1397    29.959253    308.60446    491.74165    398.14515   -16.338746    -82.25603    287.39598 
1534800000   1.5348e+09    296.91487       107143   -39.124906   0.81907956   -989.24071    2328.7999   -764.36203    171.66226    475.32506   -192.15952   -657.00052    515.49672    296.92879 
1534900000   1.5349e+09    285.58351       107143    126.45169   0.81907956   -969.54695    2221.8651    328.75359   -567.38585    617.98734   0.67409378   -797.63881   -231.88602    285.59767 
1535000000    1.535e+09     291.1842       107143   -511.07646   0.81907956   -984.79801     2269.202   -1518.9662    420.93617   -435.19939   -631.13122    1074.2991    449.33601    291.19812 
1535100000   1.5351e+09    295.07286       107143    -241.7018   0.81907956   -1079.8321    2217.6238    22.602091   -642.30932   -105.39817    12.728954    150.28666    620.34645    295.08556 
1535200000   1.5352e+09    294.54197       107143    418.85964   0.81907956   -926.35511    2365.1682    285.26457    286.98229    684.33205   -82.193545     208.8312    10.853421    294.55575 
1535300000   1.5353e+09    296.77357       107143   -484.95227   0.81907956   -1002.1901    2314.2714    -632.7685   -866.80566    44.717343    258.23376   -169.17749   -355.71971    296.78796 
1535400000   1.5354e+09    294.13418       107143    450.95041   0.81907956   -970.68328    2316.2829   -456.34744    684.07663     1125.122   -566.44045    255.30392    453.93269    294.14831 
1535500000   1.5355e+09    287.62592       107143    156.59924   0.81907956   -918.21217    2296.0238    863.09523   -662.22938    268.93186   -155.06501   -7.9329825    505.25534    287.64099 
1535600000   1.5356e+09    288.52327       107143   -32.072944   0.81907956   -842.90724    2381.3567    177.75926    207.76725   -481.74534   -335.98963   -312.83984    614.26358    288.53728 
1535700000   1.5357e+09    297.01124       107143   -173.68715   0.81907956   -1114.0498    2205.0676   -465.82004    176.17105   -231.41247    144.69831    139.19195   -411.82905    297.02471 
1535800000   1.5358e+09     286.2381       107143    42.949084   0.81907956   -963.33342    2235.3936    254.74381    96.663532   -222.56009    324.12574    141.42459   -424.33402    286.25227 
1535900000   1.5359e+09    293.00104       107143   -319.71629   0.81907956   -973.70578    2300.5975   -523.82302    6.4457577    -441.7716    322.24223    98.463187    74.701434    293.01503 
1536000000    1.536e+09    287.82864       107143   -387.77419   0.81907956   -921.10018    2295.4012   -704.80677   -266.60884   -191.90696   -490.37928    91.449816   -5.3162147    287.84242 
1536100000   1.5361e+09    288.27633       107143    505.75189   0.81907956   -937.96848    2283.5359    798.74823    505.20598    213.30147    342.28454   -246.36929    342.96056    288.28981 
1536200000   1.5362e+09      295.272       107143   -824.22533   0.81907956   -1048.9259    2250.7555   -1502.9309    7.5577567   -977.30284   -53.892097    716.21921    452.40248    295.28624 
1536300000   1.5363e+09    293.39896       107143     887.8938   0.81907956   -991.60865    2287.1414    768.78517    1112.4209     782.4753    195.88143    656.57632    690.15225    293.41372 
1536400000   1.5364e+09    292.85046       107143    420.56243   0.81907956   -1045.4524    2227.1682    397.68583   -656.27755     1520.279   -59.213146    124.37528    231.98375    292.86404 
1536500000   1.5365e+09    288.42883       107143    375.98216   0.81907956   -1007.8252    2215.3834   -860.72253    1077.3595    911.30948   -144.26669     403.1274    258.03055    288.44309 
1536600000   1.5366e+09    297.11999       107143   -226.14686   0.81907956   -968.30257    2352.0302   -375.64293   -389.19789    86.400236      400.558    153.44314    512.29961    297.13351 
1536700000   1.5367e+09    296.56628       107143    21.373378   0.81907956   -942.17475    2371.9704   -211.90459    705.70882    -429.6841    263.86375   -71.427762    44.316896    296.58046 
1536800000   1.5368e+09    294.07944       107143    41.914792   0.81907956   -934.79197    2351.5625     124.9148   -166.90028    167.72986    396.78619     73.35021   -593.45598    294.09361 
1536900000   1.5369e+09    290.03145       107143    169.47075   0.81907956   -975.77821    2265.3398   -633.21552    578.80053    562.82725    472.84229   -2.8286443    275.50342      290.045 
1537000000    1.537e+09    299.10895       107143   -219.62898   0.81907956    -915.2456     2427.314   -763.33423    29.395604    75.051694     24.71343    221.14677    292.00829    299.12332 
1537100000   1.5371e+09    298.67622       107143      -632.96   0.81907956    -1009.922    2327.8018   -172.76864   -1082.4711    -643.6403     48.09341    507.28607   -230.97542    298.68985 
1537200000   1.5372e+09    293.64971       107143    546.16988   0.81907956   -982.56649    2298.9857    925.55944    1286.8413   -573.89105    254.80563   -291.82581    356.68222    293.66392 
1537300000   1.5373e+09    289.30069       107143   -240.93127   0.81907956   -1076.8672    2156.0845    802.92691   -325.01724   -1200.7035    184.02002   -40.541303    279.72386    289.31455 
1537400000   1.5374e+09    291.68653       107143   -746.99744   0.81907956   -969.73544    2289.8781   -353.60582   -667.76907   -1219.6174    545.47301   -221.55012   -237.72036    291.70055 
1537500000   1.5375e+09     295.9651       107143    224.86208   0.81907956   -887.74638    2419.6805    15.795172     288.5982    370.19286    465.32982    106.40373   -579.31475     295.9798 
1537600000   1.5376e+09    290.81923       107143    318.46874   0.81907956   -1052.7026    2197.2189    1433.5347    16.742678   -494.87113   -286.58572   -70.022294     -62.1776    290.83308 
1537700000   1.5377e+09    299.20797       107143    780.25182   0.81907956   -964.76556    2378.9005     563.8831    1001.6141    775.25823   -173.49257   -53.107685   -317.97939    299.22298 
1537800000   1.5378e+09    287.94293       107143   -414.28197   0.81907956   -915.47884    2302.2998   -298.38145   -720.61486   -223.84961   -581.80006   -68.696288   -598.90666    287.95837 
1537900000   1.5379e+09    292.25876       107143   -91.553055   0.81907956   -851.59272    2414.4155   -216.03551   -330.59245     271.9688    230.05895   -419.76765   -444.43817    292.27296 
1538000000    1.538e+09    298.80707       107143    457.09989   0.81907956   -1002.8411    2336.3449    443.72378    130.50563    797.07027    262.20555   -5.8736443    175.92297    298.82155 
1538100000   1.5381e+09    297.35175       107143    416.40984   0.81907956   -890.13436    2432.7884   -26.992096    510.39883    765.82278   -834.65469    -705.9623    81.599868    297.36662 
1538200000   1.5382e+09    292.67758       107143    -904.0837   0.81907956   -972.93094    2297.7577   -905.50148    -685.3749   -1121.3747   -227.89029   -464.49833    31.523113    292.69206 
1538300000   1.5383e+09     289.6729       107143    198.05995   0.81907956   -1016.7762    2220.3349   -407.94316    62.073195    940.04981    161.08928   -687.46235    103.21859    289.68689 
1538400000   1.5384e+09    292.19575       107143   -391.37663   0.81907956   -989.41049    2275.8936   -438.24958   -6.8323448   -729.04797    96.480299    502.12227    219.26939    292.20971 
1538500000   1.5385e+09    297.55233       107143   -249.53225   0.81907956   -965.56246    2359.6017    -398.7907    -561.6162    211.81014    51.599931   -54.424724     454.4282    297.56542 
1538600000   1.5386e+09     293.0117       107143   -21.603198   0.81907956   -1001.5796    2272.8428    -537.1608   -136.90918    609.26039    361.24671    375.90555    491.37384    293.02556 
1538700000   1.5387e+09    288.63832       107143   -100.85672   0.81907956   -988.31179    2237.2379    741.80522   -678.13154   -366.24384   -177.77409   -223.72322   -219.16123    288.65223 
1538800000   1.5388e+09     295.0229       107143    1144.4582   0.81907956   -933.47587    2363.4218    1224.3609    864.85566    1344.1581   -415.68834    27.613066   -1048.2166    295.03682 
1538900000   1.5389e+09    288.89756       107143   -261.47261   0.81907956   -977.96454    2250.4821    57.644874    212.52527    -1054.588   -494.10944    457.36909    -479.0074    288.91101 
1539000000    1.539e+09    293.99223       107143   -491.26221   0.81907956   -933.01205    2352.3678     18.27276   -864.70162   -627.35777    253.04598   -39.859994   -133.96595    294.00667 
1539100000   1.5391e+09    289.55866       107143   -187.58095   0.81907956   -1002.7827    2233.0518    -269.1539   -216.94482   -76.644122    328.71397    371.15419   -338.31997    289.57144 
1539200000   1.5392e+09    294.75405       107143    687.71676   0.81907956   -965.22167    2328.6716    924.13617    581.22664    557.78748     396.7939    210.61105    92.783046    294.76781 
1539300000   1.5393e+09    293.57857       107143   -175.22553   0.81907956   -955.45511    2325.3022    53.891007     158.4998   -738.06739   -151.09152    248.13067    248.14203    293.59302 
1539400000   1.5394e+09    289.64543       107143   -480.34713   0.81907956   -989.31019    2247.4939   -599.58402   -245.30872   -596.14865   -622.01252    24.268364    281.12355    289.65853 
1539500000   1.5395e+09    295.85174       107143    51.896541   0.81907956   -1017.9716    2288.1884   -351.43148    75.368551    431.75255   -803.34495    320.97445   -322.16359    295.86554 
1539600000   1.5396e+09    294.76465       107143   -232.52693   0.81907956   -969.32592    2324.6858   -821.37406    291.62509   -167.83182    176.13744    526.09278    416.84447    294.77881 
1539700000   1.5397e+09    288.83331       107143   -416.67178   0.81907956   -958.58446    2269.1442   -453.94401   -874.72338     78.65206    434.75094   -343.86035    689.54669    288.84772 
1539800000   1.5398e+09    291.75783       107143    832.14992   0.81907956    -994.5971    2265.8133    1856.0969     160.9046    479.44825    380.72068   -530.61573   -592.00018    291.77209 
1539900000   1.5399e+09    293.99335       107143    -130.5159   0.81907956   -955.05468    2330.3378    206.74838    -226.0288   -372.26726   -168.37162    395.18449   -319.85936    294.00762 
1540000000     1.54e+09    295.06876       107143    429.18229   0.81907956   -995.69396    2301.7162     566.2942   -322.88367    1044.1363    286.84218   -173.32191    220.33943    295.08261 
1540100000   1.5401e+09    287.58522       107143   -684.87298   0.81907956   -961.59026    2252.1909   -815.64891   -582.35813    -656.6119    71.181638   -160.42464    232.40155    287.59986 
1540200000   1.5402e+09    290.03008       107143   -143.89875   0.81907956   -1042.4259    2198.6768   -169.00203   -201.15836   -61.535855    105.37967    206.83853   -105.30153     290.0433 
1540300000   1.5403e+09    287.51103       107143   -336.47467   0.81907956    -982.1299    2230.8222    664.29719   -465.24411   -1208.4771    719.97003   -257.27258    606.34007    287.52562 
1540400000   1.5404e+09    293.34883       107143    400.71653   0.81907956   -1027.1995    2250.9904    1019.3825   -406.41775    589.18483    76.004676   -512.53494    77.470115    293.36245 
1540500000   1.5405e+09    295.29925       107143    246.31154   0.81907956   -1041.5372    2258.4487   -77.522532    126.63115    689.82599    25.439047    441.40472   -191.35448    295.31383 
1540600000   1.5406e+09    297.21599       107143    -936.2438   0.81907956   -963.23543    2358.1702   -941.88756   -1121.7053   -745.13853    873.88266    395.49852   -33.824219    297.23016 
[...]
2408000000    2.408e+09    296.13729       107143   -540.24294   0.81907956   -1101.0264    2208.3246   -721.81511      -557.29   -341.62372   -191.27033    496.50997   -372.04776    296.15526 
2408100000   2.4081e+09    290.75797       107143    15.710163   0.81907956   -1126.1945    2123.0424    54.378914    96.590286   -103.83871    23.991733    356.07998    512.99776    290.77618 
2408200000   2.4082e+09    292.15797       107143   -501.67139   0.81907956   -1117.7899     2147.092   -1207.1633    120.58582   -418.43667   -258.39973   -417.84892   -91.658723    292.17553 
2408300000   2.4083e+09     294.2614       107143  -0.57578565   0.81907956   -1096.6941    2191.6938    583.66494   -493.85102   -91.541273    643.78826   -413.91611   -438.25128    294.27939 
2408400000   2.4084e+09     282.4419       107143   -318.17837   0.81907956   -1023.9008    2132.4035   -1083.7203    444.15221   -314.96704    86.472879    482.68401   -152.40484    282.45905 
2408500000   2.4085e+09    299.31542       107143   -471.60168   0.81907956   -1134.3461    2210.5207   -231.60363   -524.91614   -658.28528    19.533635   -42.016154    101.06211    299.33282 
2408600000   2.4086e+09    297.35553       107143    224.31209   0.81907956    -1082.422    2240.5429    81.027355   -271.65058    863.55949    160.76104    209.02522   -611.79089    297.37425 
2408700000   2.4087e+09    296.07407       107143    99.895583   0.81907956   -1005.1545      2303.49    743.72193   -461.41228    17.377102    45.191342    207.38121   -462.56784     296.0922 
2408800000   2.4088e+09    298.46294       107143   -1163.6683   0.81907956   -1012.0476    2323.2927   -697.00276   -1058.5549   -1735.4474   -701.49979   -661.35436    208.36983    298.48113 
2408900000   2.4089e+09     299.5588       107143   -532.78229   0.81907956   -1043.4478    2304.1388   -366.34825    116.61394   -1348.6126    412.50627   -132.37824   -472.63909    299.57656 
2409000000    2.409e+09    294.41011       107143    547.31725   0.81907956   -1057.0596    2232.9902    583.43467    1109.5376    -51.02055   -402.24839    265.38933   -253.35586    294.42872 
2409100000   2.4091e+09    294.69549       107143    88.697163   0.81907956   -1024.7324    2268.5064   -313.67939    534.35196    45.418917   -156.67899   -374.21918   -18.522472     294.7143 
2409200000   2.4092e+09    287.50169       107143   -809.72613   0.81907956   -1057.9409    2154.9068   -525.47221   -1762.1939   -141.51232    294.37236    43.335744    73.081212    287.52009 
2409300000   2.4093e+09    294.14449       107143    849.88268   0.81907956   -1064.3046    2222.7768    1592.3182    285.09351    672.23637    518.90734     176.4934    -29.52594    294.16223 
2409400000   2.4094e+09    295.73958       107143    597.82817   0.81907956   -982.73272    2322.1739    668.90561    811.48745    313.09144    281.12355    412.11118    194.90008    295.75851 
2409500000   2.4095e+09    291.45123       107143    186.59857   0.81907956   -1011.0041      2245.98     884.7053   -909.79509    584.88549    235.68608    254.60226   -187.13475    291.47022 
2409600000   2.4096e+09     290.4354       107143    35.160347   0.81907956   -1069.9028    2175.7293    513.58167    266.87686   -674.97749   -115.17447   -44.279083   -375.49244    290.45416 
2409700000   2.4097e+09    290.75476       107143   -504.05041   0.81907956   -1081.0089    2168.1921   -248.76577   -673.90655    -589.4789   -3.8980741   -407.42444    347.41504    290.77286 
2409800000   2.4098e+09    290.46738       107143    3.0143377   0.81907956   -1040.6301    2205.3595   -203.73604    78.826194    133.95286    322.25316   -29.213273    815.70381     290.4859 
2409900000   2.4099e+09    294.82585       107143    -694.8246   0.81907956    -1025.353    2269.3427   -855.47282   -243.92339   -985.07761   -51.549042   -177.68405    25.818372    294.84316 
2410000000     2.41e+09    286.11042       107143    38.220276   0.81907956   -1107.7608    2089.5394   -454.53085    855.20866   -286.01699    129.28807    -387.5665   -166.87598    286.12758 
2410100000   2.4101e+09    291.51477       107143    567.05073   0.81907956   -1054.6446    2203.0495    1485.7157    448.38964    -232.9531    269.70417    150.61124    228.07366    291.53181 
2410200000   2.4102e+09     292.5054       107143   -270.16813   0.81907956   -1003.9056    2264.8588   -125.51695   -69.624349   -615.36309   -312.61573    258.91925   -376.93162    292.52313 
2410300000   2.4103e+09    287.15804       107143    369.33578   0.81907956   -1046.9341    2162.0733    508.51022    872.29787   -272.80075   -333.59832    63.713762   -289.98539    287.17519 
2410400000   2.4104e+09    291.14379       107143   -810.13085   0.81907956   -1136.2389    2117.3096   -571.13578   -1076.6341   -782.62267   -113.27486   -333.72705    229.28791    291.16192 
2410500000   2.4105e+09     296.5083       107143   -467.87516   0.81907956   -1019.6682    2293.8289   -358.05364    -572.3074   -473.26445   -182.87439    112.30276    226.99632    296.52644 
2410600000   2.4106e+09    293.67974       107143   -41.281689   0.81907956    -1073.907    2207.9808    390.58946    57.095484   -571.53001    316.50524    32.303956   -92.181579    293.69825 
2410700000   2.4107e+09    295.12786       107143   -50.264473   0.81907956   -1075.4284    2222.6423   -231.30741    626.80643   -546.29244    343.94882   -227.14947    110.87723    295.14594 
2410800000   2.4108e+09    289.71557       107143    194.63664   0.81907956   -987.72633    2249.8616    229.24336    180.65509    174.01148    523.96528    342.92511    258.19804    289.73423 
2410900000   2.4109e+09    295.02648       107143    658.76785   0.81907956   -1058.4246    2238.5131    1323.2271    425.33792    227.73855   -769.72742   -112.51789   -572.12097    295.04451 
2411000000    2.411e+09    294.08002       107143   -727.87246   0.81907956   -1132.9662    2153.3947   -439.69955   -212.33576   -1531.5821     276.2221   -49.827178   -518.96721    294.09815 
2411100000   2.4111e+09    290.31318       107143    15.597038   0.81907956   -1052.8464    2191.4199   -205.32054    323.45434   -71.342692    31.002157     -530.378   -109.66866    290.33111 
2411200000   2.4112e+09    287.30906       107143   -112.47416   0.81907956   -1051.3408    2159.3543     644.4882   -1020.0511    38.140428    222.64001    294.99995    135.19138     287.3285 
2411300000   2.4113e+09    291.19075       107143   -610.16697   0.81907956   -1054.9649    2199.1083    246.40847   -945.10942      -1131.8    278.85765   -116.68203   -471.88239    291.20941 
2411400000   2.4114e+09    302.72454       107143   -415.35568   0.81907956   -990.50312    2392.4609   -704.27816   -503.12854   -38.660349   -302.71832   -161.95105    261.57294    302.74324 
2411500000   2.4115e+09    295.26837       107143   -825.52221   0.81907956   -1004.9915    2294.6492   -596.21022   -941.21441   -939.14198   -36.189086    572.36884    -500.1896    295.28729 
2411600000   2.4116e+09    294.13732       107143    560.41135   0.81907956   -1003.2046    2283.7967     1114.272    678.60426    -111.6422   -169.49786   -62.848456    808.07835    294.15627 
2411700000   2.4117e+09    295.26815       107143    116.18233   0.81907956   -1026.3431    2273.2953   -163.86857    497.94306    14.472509    234.73536    478.40326   -137.56311    295.28614 
2411800000   2.4118e+09    291.90436       107143   -517.08757   0.81907956   -1117.1667    2144.8811   -794.71594   -506.11705   -250.42973    831.25315   -100.93976    574.03799    291.92115 
2411900000   2.4119e+09    290.07645       107143   -50.853319   0.81907956   -1049.1226    2192.4982    147.63652   -612.29552    312.09904    317.59405    839.87376    529.67458    290.09462 
2412000000    2.412e+09    292.18714       107143   -246.37709   0.81907956   -1049.2501    2215.9578   -12.350195   -384.32381   -342.45727    -646.9483   -12.380099   -136.68481     292.2057 
2412100000   2.4121e+09    291.94051       107143    490.74794   0.81907956   -992.34393    2270.1079    567.10033     974.5486   -69.405107   -850.28229    68.669182   -572.48331    291.95847 
2412200000   2.4122e+09    290.16916       107143   -11.718978   0.81907956   -933.11959    2309.5373   -174.26982   -784.05816    923.17105     -371.235    163.96441   -269.93735    290.18763 
2412300000   2.4123e+09    284.96096       107143    181.67581   0.81907956   -961.64595    2222.8089    536.95416    6.0240398    2.0492137    398.69676    758.78277   -10.868537    284.97969 
2412400000   2.4124e+09    294.95052       107143    1653.8107   0.81907956   -1117.4969     2178.592    2083.1265    1941.3304     936.9752    55.435552    -489.2848   -756.72403      294.969 
2412500000   2.4125e+09    295.68279       107143   -674.69858   0.81907956   -1014.1746    2290.0974   -1027.6636   -176.66308   -819.76912   -719.43489   -632.93987   -224.35542     295.7011 
2412600000   2.4126e+09    296.16125       107143    598.87002   0.81907956   -1011.4448     2298.174    1044.6982    -349.8287    1101.7406    78.739093    878.51736    221.14356    296.17969 
2412700000   2.4127e+09    290.87005       107143    165.11214   0.81907956   -1084.4658    2166.0235    295.65168   -417.31778    617.00253    565.53851    243.30628   -219.59836    290.88816 
2412800000   2.4128e+09    297.73078       107143    -425.9397   0.81907956   -1103.4561    2223.7023    12.019343   -773.63641   -516.20204   -250.27897    460.44919    502.68226    297.74947 
2412900000   2.4129e+09    289.65123       107143   -389.32825   0.81907956   -1087.8711    2148.9979   -734.17479   -342.36622   -91.443727   -199.81014    518.90222    180.48208    289.66794 
2413000000    2.413e+09    291.71398       107143   -846.99433   0.81907956   -1091.2149    2168.7055   -394.60568   -942.45151   -1203.9258    165.21403    259.33158    212.10369    291.73255 
2413100000   2.4131e+09    293.36623       107143   -105.62344   0.81907956   -1155.1131    2123.2712     56.08057    -324.5231   -48.427787    302.33175    89.652484    667.47396    293.38362 
2413200000   2.4132e+09    303.33947       107143   -32.634083   0.81907956   -1098.4851    2291.3507    462.07178   -37.525923   -522.44811    195.73845   -137.85184    311.18426    303.35772 
2413300000   2.4133e+09    296.50321       107143   -284.53854   0.81907956   -993.48801    2319.9523    277.72039    106.79091   -1238.1269   -427.39404   -218.11145    100.79391    296.52167 
2413400000   2.4134e+09    289.85692       107143   -647.73348   0.81907956   -1087.4176      2151.75   -1202.4469   -521.03751     -219.716    574.80773    251.42551    327.16645    289.87417 
2413500000   2.4135e+09    295.09059       107143    190.43152   0.81907956   -1102.8329    2194.8213    14.172593    219.61694    337.50502    265.84045    228.36331   -5.9658558    295.10906 
2413600000   2.4136e+09    298.58119       107143    429.88195   0.81907956   -998.52147    2338.1403    255.63942    588.23972    445.76671    304.39613    143.67354    787.86962    298.59888 
2413700000   2.4137e+09    294.50088       107143    173.11974   0.81907956   -1023.9528    2267.1113   -374.10207    169.89837    723.56292    394.32145    322.49328   -226.08146     294.5192 
2413800000   2.4138e+09    284.80056       107143    725.16764   0.81907956   -1029.6329    2153.0296    844.54669    70.333647    1260.6226   -63.217553    263.98195    156.71512    284.81747 
2413900000   2.4139e+09    292.95258       107143    327.21863   0.81907956   -1089.3059    2184.4558    134.45781    83.087715    764.11036    215.25236   -440.98009    166.37394    292.97074 
2414000000    2.414e+09    295.97924       107143   -14.067361   0.81907956   -1007.7741    2299.8108   -126.69126    157.66876   -73.179581    678.94868    87.144401    644.87728    295.99808 
2414100000   2.4141e+09    289.15202       107143    139.89927   0.81907956   -1002.6154    2228.6749   -116.34294    794.51397   -258.47321    160.14721    70.381698    222.70264    289.17038 
2414200000   2.4142e+09    295.40908       107143    86.514567   0.81907956   -1015.4979    2285.7154   -234.39027    533.81754   -39.883571    44.425632   -57.414753    88.814733     295.4268 
2414300000   2.4143e+09    289.85937       107143    310.64238   0.81907956   -1052.2855    2186.9095   -271.40219    816.81842     386.5109    219.62747   -525.68663   -71.318886     289.8781 
2414400000   2.4144e+09    289.91305       107143   -37.523422   0.81907956   -1067.6937    2172.1011    1031.5772   -557.73523   -586.41222    157.56078   -208.06526   -584.13415    289.93007 
2414500000   2.4145e+09    293.12168       107143    355.44849   0.81907956   -1092.6695    2182.9819    413.09652    827.08582   -173.83686    105.29007     187.9801    205.24582    293.13957 
2414600000   2.4146e+09    288.26724       107143   -3.3650676   0.81907956   -1073.2794    2148.1234    804.80015   -928.51611    113.62076    390.12777    -22.03232     79.82394    288.28463 
2414700000   2.4147e+09     294.1883       107143   -103.39773   0.81907956   -1112.1284    2175.4427   -172.47343   -42.734495   -94.985246    -455.9664   -702.73833    178.34372    294.20596 
2414800000   2.4148e+09    289.34193       107143   -642.98157   0.81907956   -1064.6558    2168.7567     20.05554   -678.97425    -1270.026   -823.61976    156.51043   -439.36619    289.35876 
2414900000   2.4149e+09    288.74502       107143   -906.78139   0.81907956   -1077.4155    2149.3265   -1023.2144   -728.00382   -969.12593    289.36613   -1178.3355   -200.71203    288.76282 
2415000000    2.415e+09    286.73166       107143     216.5257   0.81907956   -1021.6219    2182.6208     101.1157    1040.1094   -491.64801    -40.84937    151.95682    91.704618    286.75075 
2415100000   2.4151e+09    297.72756       107143   -244.13504   0.81907956   -1083.8856    2243.2368    229.52366   -960.30124    -1.627554    231.97395   -297.62705    169.59015    297.74457 
2415200000   2.4152e+09    289.63291       107143   -430.77111   0.81907956   -1101.1701    2135.4941    829.53162   -1172.7088   -949.13612    -3.450565   -599.83666    771.09774    289.65159 
2415300000   2.4153e+09    296.30599       107143    184.38446   0.81907956   -1114.0204    2197.2159    700.51594   -140.53898   -6.8235728   -197.26626    290.62248      -7.9111    296.32493 
2415400000   2.4154e+09    291.02104       107143   -525.77055   0.81907956   -1085.7344    2166.4423   -376.59159     95.02963   -1295.7497   -463.86785   -541.87428   -59.021153    291.03888 
2415500000   2.4155e+09    295.33196       107143    1040.6437   0.81907956   -999.76497    2300.5865    1057.6925    945.74237    1118.4962    910.96485   -368.64521   -88.463442     295.3507 
2415600000   2.4156e+09     288.9783       107143   -192.35684   0.81907956   -1063.3736    2165.9754    82.895195   -189.16267   -470.80305   -162.63637   -459.27889     454.3519    288.99627 
2415700000   2.4157e+09    291.09667       107143    56.772729   0.81907956   -1019.2739    2233.7479   -753.88357    888.03612    36.165638     19.86484    15.805557   -111.40256    291.11408 
2415800000   2.4158e+09    299.61168       107143    363.14402   0.81907956   -1055.7972    2292.3804     102.8292   -15.319362    1001.9222    -557.8202   -243.67876   -74.973925    299.62996 
2415900000   2.4159e+09    292.65754       107143   -513.10817   0.81907956   -989.28721    2281.1775    -439.8685   -344.86382   -754.59219    215.61835   -248.40483    36.807601    292.67582 
2416000000    2.416e+09    294.82396       107143    302.52017   0.81907956   -1063.2777    2231.3969    921.58238   -99.892336    85.870465   -347.17062   -74.967198   -13.580735    294.84211 
2416100000   2.4161e+09     287.3813       107143   -864.99486   0.81907956   -1101.4687    2110.0337   -1126.6171   -320.76005   -1147.6074    121.19474    68.462541   -418.23762    287.39889 
2416200000   2.4162e+09    292.03735       107143   -89.919402   0.81907956   -1117.7618    2145.7722    564.97787   -571.87027    -262.8658    827.99034   -470.26113   -480.44282    292.05594 
2416300000   2.4163e+09    293.66368       107143   -129.65788   0.81907956   -1092.4474     2189.261    617.62508   -337.00845   -669.59027   -263.02858   -534.10916   -35.651997    293.68207 
2416400000   2.4164e+09     298.2107       107143    84.908154   0.81907956   -1099.4176    2233.1039   -679.88536    500.30279    434.30703   -153.47708   -1171.3587    118.19051    298.22739 
2416500000   2.4165e+09    287.08998       107143    709.68868   0.81907956   -1044.2459     2164.001    875.24959    1394.8441   -141.02763   -487.01984   -609.72209   -100.06156    287.10875 
2416600000   2.4166e+09    293.30886       107143    286.99064   0.81907956   -986.41199    2291.3313    665.55731   -1380.4974     1575.912   -346.65387   -4.7366761   -557.51887    293.32812 
2416700000   2.4167e+09    289.60375       107143   -26.300152   0.81907956   -1050.1534    2186.1849     697.0286   -336.08154   -439.84751    763.60335    453.67714   -351.02722    289.62282 
2416800000   2.4168e+09    296.61383       107143   -29.640256   0.81907956   -971.19321    2343.4832   -443.97676     285.5497    69.506295    11.889079   -175.36682    508.09185    296.63286 
2416900000   2.4169e+09     293.7751       107143   -528.07618   0.81907956   -1062.6442    2220.3093   -249.88511   -1199.7588   -134.58462   -228.67219    635.50335    177.83867    293.79368 
2417000000    2.417e+09    286.95877       107143   -285.65696   0.81907956   -1023.7061    2183.0745   -257.02365   -712.63948    112.69225   -632.21039    585.27231    -140.6445    286.97652 
2417100000   2.4171e+09    290.19833       107143   -354.40905   0.81907956   -985.54548    2257.4374   -402.66817   -513.24475   -147.31422   -57.529816    198.91733    124.72899    290.21588 
2417200000   2.4172e+09    290.03317       107143   -207.70063   0.81907956   -1026.7768    2214.3603    456.72655    13.472683   -1093.3011   -170.71503   -143.53123   -272.19889    290.05064 
2417300000   2.4173e+09    292.62976       107143   -266.47562   0.81907956    -960.1764    2309.9778   -422.13515   -393.32787    16.036162    -536.0269   -89.925821   -214.13907    292.64652 
2417400000   2.4174e+09    292.01471       107143   -464.11329   0.81907956   -1060.8274    2202.4536   -191.86237   -587.82539   -612.65212   -244.33983   -110.17811    250.91671    292.03323 
2417500000   2.4175e+09    292.49559       107143   -83.448121   0.81907956   -1079.1797    2189.4752    427.91863    319.25998   -997.52297   -233.31902    343.07183   -445.00885    292.51384 
2417600000   2.4176e+09    292.49097       107143    392.51647   0.81907956   -1012.0595    2256.5438    476.16881    1366.9423   -665.56173    386.08686   -347.38048    57.072485    292.50913 
2417700000   2.4177e+09     289.2533       107143    154.53883   0.81907956   -1079.0645    2153.3576    541.85707   -262.19406    183.95346   -417.12138   -218.05225   -397.17233    289.27146 
2417800000   2.4178e+09    290.69285       107143    121.26094   0.81907956     -1026.19    2222.3191    568.85456   -389.24951    184.17777    234.71857   -401.27394   -22.570928    290.71109 
2417900000   2.4179e+09    294.81632       107143   -963.08383   0.81907956   -945.48393    2349.1052   -1180.3929   -842.79153    -866.0671   -70.616901   -28.502303    416.22802    294.83469 
2418000000  srun: Job step aborted: Waiting up to 2 seconds for job step to finish.
slurmstepd: *** JOB 497738 CANCELLED AT 2015-07-28T04:11:05 DUE TO TIME LIMIT on bigmem0035 ***
slurmstepd: *** STEP 497738.0 CANCELLED AT 2015-07-28T04:11:05 DUE TO TIME LIMIT on bigmem0035 ***
srun: got SIGCONT
srun: forcing job termination
srun: error: bigmem0035: tasks 0-47: Terminated
srun: Terminating job step 497738.0
