LAMMPS (10 Feb 2015)
Read molecule SQL:
  30 atoms with 4 types
  29 bonds with 1 types
  34 angles with 1 types
  31 dihedrals with 2 types
  6 impropers with 1 types
Reading restart file ...
  restart file = 28 Jun 2014, LAMMPS = 10 Feb 2015
  triclinic box = (111.252 111.252 111.252) to (158.748 158.748 158.748) with tilt (-2.54374e-12 0 0)
  3 by 4 by 4 MPI processor grid
  3750 atoms
  3625 bonds
  4250 angles
  3875 dihedrals
  750 impropers
250 atoms in group endatoms
Resetting global state of Fix shear1 Style nvt/sllod from restart file info
Neighbor list info ...
  1 neighbor list requests
  update every 1 steps, delay 0 steps, check yes
  master list distance cutoff = 10.3
Setting up run ...
Memory usage per processor = 5.70157 Mbytes
Step dummytim Temp Volume Press Density PotEng TotEng Pxx Pyy Pzz Pxy Pyz Pxz myT molPE1 molPE2 molPE3 molPE4 molPE5 molPE6 
310000000      3.1e+08    296.72059       107143   -575.04097   0.81907956   -872.99795    2442.8716     -655.831   -220.12107   -849.17085    205.01547    302.04646    12.442143    296.74187   -4287.5064     1044.498    1156.2953    1102.3493    111.36585            0 
310100000    3.101e+08    287.46866       107143    357.28897   0.81907956   -810.30989    2402.1688    531.39176   -170.69917    711.17431    -368.0262   -663.43916   -344.61178    287.48181   -4268.9637    1109.7931    1151.9969    1088.6131    108.25069            0 
310200000    3.102e+08    293.62187       107143     540.6402   0.81907956   -906.60168    2374.6395   -63.008265   -5.1643779    1690.0932   -17.430741   -800.54241   -406.12458    293.63586   -4278.9408    1099.2158    1079.1137    1083.1574    110.85231            0 
310300000    3.103e+08     300.7913       107143    122.61634   0.81907956   -893.43895    2467.9209    321.96736   -238.50803     284.3897   -161.40067   -143.16114   -420.46193    300.79608   -4288.9261     1058.866    1133.0631    1099.4909     104.0671            0 
310400000    3.104e+08      297.429       107143    583.17726   0.81907956   -903.08156    2420.7045    2057.3356   -313.08629    5.2824624   -239.11034   -529.86419    45.992113    297.44161   -4293.6362    1058.7408    1155.9179    1060.9923    114.90353            0 
310500000    3.105e+08    292.14965       107143   -247.08377   0.81907956   -833.89528    2430.8936   -500.77319   -166.82155    -73.65658    327.73871   -39.661742   -475.72687    292.16522   -4273.5521    1087.0994    1142.0051    1099.3302    111.22211            0 
310600000    3.106e+08    293.94108       107143   -103.46389   0.81907956   -878.22909    2406.5792   -792.63244    412.18065    70.060133    260.37148   -499.12485   -39.146934    293.95704   -4271.5488    1055.1156    1161.5333    1059.9296    116.74125            0 
310700000    3.107e+08    286.29097       107143   -6.9398127   0.81907956   -852.95352    2346.3644   -156.83209    624.77331   -488.76066   -183.08901    213.95845   -106.73636    286.32425   -4266.0035    1054.0866      1153.75    1110.2211    94.992261            0 
310800000    3.108e+08    290.68122       107143    479.71707   0.81907956   -888.94073    2359.4385     166.7251    469.16082    803.26529   -124.92425   -185.31729    178.68891    290.69434   -4255.9965    1014.9111    1182.4443     1058.156    111.54436            0 
310900000    3.109e+08    298.25536       107143    316.40932   0.81907956   -933.39236    2399.6282    820.96538   -327.18375    455.44634    363.20919    841.18674    186.26401    298.27153   -4289.4984    1087.9315    1113.6755    1044.4077    110.09134            0 
311000000     3.11e+08    292.24018       107143    546.20761   0.81907956   -876.90352    2388.8971   -473.09814    1114.3356    997.38543   -56.312322   -113.92084    534.50342     292.2507   -4277.8359     1107.474    1149.1777    1037.7778    106.50292            0 
311100000    3.111e+08    287.81856       107143     525.6756   0.81907956   -876.26767    2340.1212    922.40863    195.44003    459.17815   -419.32611     489.5133    648.72245    287.82917    -4262.676     1054.457    1166.3035    1047.2388    118.40899            0 
311200000    3.112e+08    299.37032       107143   -362.62455   0.81907956   -826.19313    2519.2872   -294.29052   -456.86651   -336.71662   -545.59934    640.49079     74.60001    299.38512    -4281.254    1093.3573    1180.4171    1061.8246    119.46189            0 
311300000    3.113e+08     294.6685       107143   -210.13342   0.81907956    -838.1876    2454.7497    214.58912    115.33028   -960.31966    423.13719    563.61915   -149.72387    294.67741   -4279.9011    1068.4164     1161.266    1100.6373    111.39381            0 
311400000    3.114e+08    291.97252       107143   -184.84781   0.81907956   -956.76076    2306.0488   -1193.1902    606.59742     32.04939   -54.894293   -346.87331   -457.07251    291.98924   -4305.5888    1076.1441    1140.3184    1016.5699    115.79555            0 
311500000    3.115e+08    295.92511       107143    390.62218   0.81907956   -878.46397    2428.5159    515.72214    84.908991    571.23541    218.65674   -526.13372   -544.45446    295.94907   -4306.5353    1112.8942    1144.6395    1075.3264    95.211299            0 
311600000    3.116e+08    292.87178       107143   -691.25016   0.81907956   -879.30825    2393.5506   -1239.3529   -921.20835    86.810824    296.12306   -209.99825     217.6596    292.89675    -4297.427    1077.6824    1135.3925    1091.5976    113.44621            0 
311700000    3.117e+08    293.77039       107143     620.5786   0.81907956   -895.21696    2387.6839    647.05642   -99.728552    1314.4079   -253.01082   -186.33506   -430.13143    293.78836   -4267.6136    1036.1551    1141.2631    1082.5691    112.40936            0 
311800000    3.118e+08    296.13356       107143   -635.36197   0.81907956   -846.81137    2462.4979   -614.70213   -945.35785   -346.02593   -253.00077   -452.60677    444.00973    296.14343   -4276.0784    1074.3999    1168.4806    1072.8092    113.57733            0 
311900000    3.119e+08    296.05672       107143    171.57634   0.81907956   -847.14787    2461.3028   -661.26026    448.42505    727.56424   -281.48806   -316.14348    730.65561    296.06818   -4296.8408    1087.5468    1179.1842    1072.3509    110.61101            0 
312000000     3.12e+08    289.80538       107143   -124.97795   0.81907956   -946.86706    2291.7246    213.88902    579.25625   -1168.0791    22.348582   -320.87106    55.338681    289.81761   -4288.1155    1033.3206    1144.7501    1050.1589    113.01888            0 
312100000    3.121e+08    297.61879       107143    457.94795   0.81907956    -934.7376    2391.1693    481.22975    664.45845    228.15565   -421.24897   -112.67398    153.66957    297.63751   -4297.6516    1052.8403    1159.7419    1036.1222    114.20964            0 
312200000    3.122e+08    296.37364       107143    173.12225   0.81907956   -854.46646    2457.5258    333.96072   -286.98442    472.39045   -106.20109     312.0074   -365.11845    296.38981   -4267.3034    1043.6562    1153.8389    1104.2069    111.13505            0 
312300000    3.123e+08    294.15878       107143    124.67839   0.81907956    -903.3119    2383.9292    288.74472    194.85624   -109.56579    125.16529     300.1055    309.28201    294.17887   -4298.3021      1091.85    1141.2962    1053.5317    108.31235            0 
312400000    3.124e+08    291.72301       107143    20.500383   0.81907956   -952.44771    2307.5735   -315.44648   -117.35495    494.30258    -875.0413   -405.36093    609.30762    291.74685   -4271.8632    1073.5746    1128.1046    1014.0238    103.71255            0 
312500000    3.125e+08    297.35744       107143    326.15262   0.81907956   -947.16819    2375.8181    636.55913    52.443537     289.4552    591.12397   -128.88547    246.69214    297.36999   -4290.1897    1047.5966    1133.6002     1052.998    108.82675            0 
312600000    3.126e+08    294.96062       107143   -20.945804   0.81907956    -820.8398    2475.3619   -63.379182    496.77724   -496.23547    141.11638    465.47814    167.91964    294.97255   -4289.4875    1115.8813    1174.4398    1069.6375     108.6891            0 
312700000    3.127e+08    296.74816       107143   -665.77192   0.81907956    -1012.658    2303.5196    364.94259   -1049.5065   -1312.7519    191.07371    744.57517   -238.12613    296.76593   -4298.9933    1004.5085    1127.2654    1040.1093    114.45205            0 
312800000    3.128e+08    290.35438       107143   -758.73691   0.81907956   -1015.2201    2229.5066   -650.77591    38.177109   -1663.6119   -447.07609    125.73832   -624.91014    290.37168   -4303.4321    1022.7999    1110.1104    1053.6526    101.64911            0 
312900000    3.129e+08    300.23689       107143   -179.03037   0.81907956   -921.39465    2433.7697   -409.93729   -7.3623444   -119.79149   -732.52457   -332.28728    31.716609    300.25242    -4280.715    1067.0305     1136.126    1053.5283     102.6356            0 
313000000     3.13e+08    292.06581       107143   -1135.9125   0.81907956    -927.3307    2336.5213   -731.97682   -1371.5195   -1304.2411    -239.9381   -71.774753    112.43286    292.08683   -4310.1214    1075.1972    1137.6406    1047.6959      122.257            0 
313100000    3.131e+08    295.90586       107143   -371.60329   0.81907956   -981.90908    2324.8557   -353.15103   -337.33971   -424.31914    -513.2547    231.01736    398.62905    295.91385   -4307.6932    1072.4267    1139.1551    1008.3811    105.82121            0 
313200000    3.132e+08    295.44858       107143    260.26399   0.81907956   -913.55661    2388.0981    -115.1946    854.71804    41.268516   -310.39153    198.06693   -108.87686    295.46726   -4288.1737    1061.1224    1171.8967    1040.2116    101.38635            0 
313300000    3.133e+08    296.71401       107143    71.633359   0.81907956   -876.89991    2438.8961     392.8652    9.6681148   -187.63324   -604.54868   -123.20336   -682.43547    296.73377   -4286.5408    1061.0078     1141.005    1091.7383    115.88976            0 
313400000    3.134e+08    294.38193       107143    121.98361   0.81907956    -928.8637    2360.8711    476.87036    98.862159   -209.78169    326.99598   -181.75994    674.94437    294.40708   -4295.2871    1071.8408     1135.737     1056.844     102.0016            0 
313500000    3.135e+08    289.51442       107143   -454.52581   0.81907956   -974.03862    2261.3015    63.003523   -671.51719   -755.06377   -84.472392   -265.36876    844.55942    289.53336   -4293.5179    1079.9991    1118.3222    1007.7874    113.37055            0 
313600000    3.136e+08    300.51989       107143   -527.59566   0.81907956    -878.6309     2479.696   -504.42382   -414.26298   -664.10019   -54.795894   -311.31505   -669.66558    300.53711   -4258.2767    1071.7287    1138.4508    1060.8138    108.65241            0 
313700000    3.137e+08    290.89348       107143      337.599   0.81907956   -916.89181    2333.8594   -128.97843    301.69058    840.08486   -75.712019    44.244192   -197.14452    290.90521   -4306.6951    1044.1392    1163.5154    1069.4338    112.71484            0 
313800000    3.138e+08    296.12991       107143   -75.122164   0.81907956   -945.49659    2363.7719    127.23812   -300.44949   -52.155119    32.110591   -559.57677    451.60122    296.14611   -4311.8148    1059.1394    1171.2816    1030.7813    105.11596            0 
313900000    3.139e+08    298.16236       107143    124.77783   0.81907956   -947.80145    2384.1799    -551.6035    322.47143    603.46557     -36.7411   -174.04883   -247.57391    298.18289    -4271.944    1067.3182    1116.8245    1024.9155    115.08431            0 
314000000     3.14e+08    290.57177       107143    303.76397   0.81907956   -872.06663    2375.0895    398.78746   -607.81706    1120.3215   -550.71941   -220.06772    446.74771    290.59255    -4267.933    1100.2385    1110.3642    1073.7578    111.50582            0 
314100000    3.141e+08    285.85505       107143   -527.29476   0.81907956   -950.80963    2243.6368    3.3557812   -773.89292   -811.34714   -90.965509   -151.76461    73.478135    285.88094   -4300.3412    1021.4661    1118.0385    1107.4809    102.54604            0 
314200000    3.142e+08    290.65931       107143   -16.611675   0.81907956   -790.39666    2457.7376   -223.46205    287.08451   -113.45749    125.36117    -126.9207    188.63584    290.67816   -4266.1328     1069.846    1189.0645    1109.2123    107.61332            0 
314300000    3.143e+08    292.08237       107143    283.45982   0.81907956   -880.39931    2383.6378     499.5976    504.94458   -154.16272   -693.70174   -473.73438    91.658713    292.10273   -4273.9247    1054.3438     1178.965    1056.0904    104.12613            0 
314400000    3.144e+08     292.3026       107143    434.41282   0.81907956   -839.23711    2427.2611    416.04376    579.12644    308.06827   -437.51035     41.26598    480.93697    292.31949   -4294.0463    1109.6339    1184.6901    1042.2745    118.21061            0 
314500000    3.145e+08     293.5953       107143    95.924545   0.81907956    -884.3662     2396.578   -89.675063     105.5565     271.8922   -585.80136   -102.32053   -380.60247    293.61727   -4271.8009    1089.5612     1147.072    1038.1724    112.62913            0 
314600000    3.146e+08    292.62147       107143   -44.655606   0.81907956   -987.87962    2282.1819   -212.32189   -34.270687    112.62576   -291.84383   -117.97508    904.36992    292.64424   -4287.2566     1032.359    1133.2863    1025.5323    108.19934            0 
314700000    3.147e+08    291.66958       107143    552.11407   0.81907956    -876.1483    2383.2758   -293.17003    972.14949    977.36276   -605.98223    240.85108    229.49085    291.68816   -4279.7647    1071.0449    1160.4924    1050.8065    121.27264            0 
314800000    3.148e+08    292.11653       107143    787.72782   0.81907956   -886.85932    2377.5595     474.6869    1509.2669    379.22962    54.110816   -140.42741   -869.38293    292.13402   -4287.2097     1038.271    1179.7244    1083.6945    98.660509            0 
314900000    3.149e+08    287.71839       107143   -926.93469   0.81907956   -908.16457    2307.1048   -492.06533   -1178.8118    -1109.927   -320.46955    226.03194    237.28016    287.73273   -4294.5561    1041.8791    1118.9031    1112.7993    112.81002            0 
315000000     3.15e+08    288.67256       107143    59.744695   0.81907956   -979.69267    2246.2396   -530.35389    492.10084    217.48713     292.5827   -279.55756   -19.544465    288.69176   -4284.0585    1045.3718    1133.9231    1015.5552    109.51572            0 
315100000    3.151e+08    289.26342       107143    -366.4192   0.81907956   -894.40104    2338.1341    72.691241   -508.29192   -663.65694   -848.11801    309.49967   -236.02495    289.28012   -4285.0264    1047.4969    1158.4753    1079.2072    105.44595            0 
315200000    3.152e+08    297.63413       107143   -461.54253   0.81907956   -926.38137    2399.6969   -407.00361    98.815422   -1076.4394    633.52553    807.37327   -262.00329    297.64778   -4266.7899    1039.9862    1158.9161    1030.3701    111.13613            0 
315300000    3.153e+08    289.85329       107143   -405.64455   0.81907956   -874.21817    2364.9088   -1100.5534   -798.92613    682.54584    324.73359   -210.59848    -377.8953    289.88353   -4323.0868    1059.3338    1191.7058    1075.8853    121.94379            0 
315400000    3.154e+08    284.93553       107143   -593.18864   0.81907956   -968.55013    2215.6206   -1501.5614   -166.85733   -111.14713   -53.567798    311.94722   -914.33887     284.9475   -4302.5117    1054.1462     1098.176    1065.7195    115.91988            0 
315500000    3.155e+08    293.11862       107143    61.023275   0.81907956   -925.95395    2349.6632    360.37106    -193.5434     16.24216    320.97751    491.59555     248.3464    293.14106   -4313.8298    1075.3618    1153.8279    1054.5337    104.15238            0 
315600000    3.156e+08    293.13061       107143   -428.77123   0.81907956   -885.74647    2390.0048   -796.77752    274.54103    -764.0772    171.55327    1060.4034    160.65544    293.13399   -4308.5802    1039.6006    1176.2416    1096.6861     110.3056            0 
315700000    3.157e+08    293.81121       107143    240.45496   0.81907956   -870.03503     2413.322    819.94183    231.39673   -329.97369    49.805398    30.225752    371.49308    293.83757   -4279.6164    1082.6125    1166.0619    1051.5972    109.30986            0 
315800000    3.158e+08    288.67695       107143   -107.11066   0.81907956   -899.38845    2326.5929      -310.24    287.04815   -298.14012   -318.87771   -10.317501    65.090823    288.68961   -4300.4432    1052.4162    1138.3598    1095.1788    115.10007            0 
315900000    3.159e+08    296.45571       107143    14.160577   0.81907956   -878.64718    2434.2623    -551.7631   -506.52896    1100.7738    194.31492    981.83052    247.48751    296.47787   -4281.2874    1049.3835    1151.6176    1083.4039    118.23511            0 
316000000     3.16e+08    288.31833       107143    29.137806   0.81907956   -892.65982     2329.314   -390.65519    498.94975   -20.881135   -95.133007   -113.17951    -132.3657    288.35098   -4285.8575    1001.7913    1176.7459    1106.4719    108.18864            0 
316100000    3.161e+08    295.35589       107143   -709.53332   0.81907956   -951.00183    2349.6171   -564.50091   -1092.5673   -471.53172   -320.02699   -528.07494    59.835329    295.37295   -4304.2955    1043.8159    1153.5112    1044.7347    111.23196            0 
316200000    3.162e+08     290.7115       107143    -32.31313   0.81907956   -950.94362    2297.7739    208.46596    343.35227   -648.75762   -484.46607    161.71507   -279.63868    290.73346   -4306.4671    1057.1987    1154.5488    1038.2474    105.52853            0 
316300000    3.163e+08    285.79461       107143    66.008172   0.81907956   -945.20826    2248.5627     317.9901    416.30951   -536.27509    402.49174    388.26547   -43.392429    285.81482   -4336.1722    1085.6653    1145.1445    1052.9861    107.16813            0 
316400000    3.164e+08      290.448       107143   -453.32191   0.81907956   -918.65928    2327.1136   -724.52742   -1349.2005    713.76219    414.75375   -94.843315    391.45766    290.46986   -4293.4278    1056.6376    1152.0103    1060.3672    105.75332            0 
316500000    3.165e+08    291.82405       107143     572.7529   0.81907956   -1004.2967    2256.8536    460.54167    514.24705    743.46997   -517.50527    87.709726   -128.60781    291.84632   -4318.0142    1050.9541    1101.5493    1053.9115    107.30248            0 
316600000    3.166e+08    289.06172       107143    163.60655   0.81907956   -845.24058    2385.0406   -603.35352   -170.86693    1265.0401   -502.96662    48.611952     287.1748    289.07451   -4251.2493    1036.9765    1197.0978    1054.6468    117.28768            0 
316700000    3.167e+08    293.21567       107143    123.34488   0.81907956   -848.33203    2428.3698    19.856448    279.56176    70.616439    289.55848    801.82305    423.11731    293.23386   -4290.8535      1091.18    1171.4503    1078.9693    100.92187            0 
316800000    3.168e+08    292.14619       107143   -164.17952   0.81907956   -944.78077    2319.9696    312.56986   -709.06934   -96.039087    376.90131   -23.853836    89.751584    292.15632   -4301.8958    1042.7098    1177.4789     1015.901    121.02535            0 
316900000    3.169e+08    292.18811       107143    117.92427   0.81907956   -936.44795    2328.7708    102.42241    217.14603    34.204383    617.48576    384.07126    807.28786    292.21313   -4312.4501    1038.7447    1142.8951    1082.1886    112.17373            0 
317000000     3.17e+08    294.72801       107143   -687.32872   0.81907956   -852.12428     2441.478   -328.79285    -1369.818   -363.37526   -33.590199   -258.54742    149.09913    294.74746   -4260.8311    1053.1384    1176.6933    1069.2023    109.67277            0 
317100000    3.171e+08    293.77676       107143    -1038.579   0.81907956   -913.65712    2369.3148   -546.44886   -442.32334   -2126.9647    447.81841    21.510152   -965.21327    293.78859   -4298.5849    1111.5705    1122.1749    1042.9274    108.25498            0 
317200000    3.172e+08    297.37915       107143    57.364995   0.81907956   -835.88041    2487.3485   -378.71991   -103.78693    654.60183    714.13866   -146.80724    -105.8591    297.39693   -4292.1641    1053.9298    1185.5416    1114.4611     102.3512            0 
317300000    3.173e+08     297.7965       107143   -804.33244   0.81907956   -887.47253    2440.4203   -1337.8583   -358.80096   -716.33804   -314.56299    87.777411   -196.20574    297.81859   -4280.6842    1074.3882    1146.4756    1068.7341    103.61368            0 
317400000    3.174e+08    301.34001       107143    -69.87869   0.81907956    -826.0079    2541.4839     630.8618   -145.31181   -695.18606   -168.58512    473.66064    324.29968    301.35466   -4283.9475    1052.6111    1188.9416     1101.399    114.98772            0 
317500000    3.175e+08    292.96388       107143    170.42714   0.81907956   -907.64027    2366.2478   -1061.3986    1028.8546     543.8254    121.35071   -584.96334    279.33522    292.98084   -4257.4771    1063.2612    1129.4799    1045.6918    111.40385            0 
317600000    3.176e+08    296.06417       107143    520.17777   0.81907956   -912.24732    2396.2866     415.0289    912.22896    233.27545    45.319007    263.06296   -281.64435    296.08385   -4315.5533    1092.1278    1143.5183    1059.3077    108.35212            0 
317700000    3.177e+08    289.65901       107143     47.09855   0.81907956   -913.00064    2323.9553   -58.447391    487.01392   -287.27088    432.87007   -209.88065    320.92481    289.66879   -4288.0302    1041.2105    1171.0738     1047.403     115.3422            0 
317800000    3.178e+08    293.93516       107143    490.79876   0.81907956   -899.78528    2384.9568    918.81383    594.10744   -40.524988    249.29913    150.40909     -107.506    293.94833   -4290.2354    1029.9224    1172.2588    1073.6041    114.66473            0 
317900000    3.179e+08    295.32789       107143     796.9171   0.81907956    -906.8075    2393.4984    907.80164    201.35136    1281.5983    -48.12097    -453.7103    52.763851    295.34505   -4306.7089     1070.383    1136.9138    1077.1125    115.49208            0 
318000000     3.18e+08    286.70677       107143   -29.416472   0.81907956   -872.89383    2331.0706   -522.57933   -190.37139    624.70131   -437.42674   -322.96597    113.69652    286.72273    -4282.473    1104.2118       1139.2    1050.1735     115.9939            0 
318100000    3.181e+08    296.82871       107143    1069.9076   0.81907956   -905.05692    2412.0208    1216.0437    1471.3338    522.34543    232.78805    330.66531    139.79861    296.83809   -4277.3319    1063.8226     1156.622    1043.6425    108.18784            0 
318200000    3.182e+08    292.41549       107143    83.683921   0.81907956   -915.72531    2352.0344   -141.00783   -173.25516    565.31476    380.80897    91.324758    428.47687     292.4238   -4275.9974    1020.8473     1156.519     1064.629    118.27681            0 
318300000    3.183e+08     295.4693       107143   -949.06837   0.81907956   -958.63124     2343.255   -1766.9849   -454.10634   -626.11388   -96.412652   -476.71204   -247.37642    295.48628   -4312.8615    1060.1301    1138.4115    1050.0568    105.63182            0 
318400000    3.184e+08    292.04364       107143    305.38069   0.81907956   -900.80337    2362.8009    529.76194    396.02378   -9.6436409   -82.112781   -202.36224    266.72074     292.0659   -4278.1374    1030.3664    1169.7417     1067.107    110.11886            0 
318500000    3.185e+08    293.95535       107143    26.610544   0.81907956   -908.21944    2376.7484   -37.333234   -64.284629     181.4495   -115.17829   -40.451088    -62.45216    293.98053   -4280.3643    1019.2891    1167.1185    1074.6244    111.11278            0 
318600000    3.186e+08    292.17114       107143   -218.51078   0.81907956   -920.67548    2344.3537   -499.49999     626.8264   -782.85876    193.19011   -319.33141   -63.060377    292.18316   -4318.3472    1056.6603    1168.7836    1064.3209    107.90701            0 
318700000    3.187e+08    298.01628       107143   -489.85118   0.81907956    -945.3781    2384.9707   -551.00573   -285.34998   -633.19782   -260.44941    334.24971   -542.87595     298.0397   -4294.4079    1064.8627    1113.5633    1050.0105    120.59326            0 
318800000    3.188e+08     292.6177       107143    2.8895719   0.81907956   -822.80228    2447.2172   -1168.4222     324.0086    853.08227   -35.290127     128.2219   -418.17952    292.63881   -4266.7442    1053.2724    1158.4911    1118.8757    113.30276            0 
318900000    3.189e+08    292.93518       107143    50.193469   0.81907956   -851.59264    2421.9746     107.4778   -66.314644    109.41725   -414.11273    293.48822   -369.46984    292.94306   -4278.9815    1103.4173    1134.2257    1087.7764    101.96946            0 
319000000     3.19e+08     299.1684       107143    201.45896   0.81907956   -1015.3799     2327.844    364.96034    304.63075   -65.214212    574.19435   -74.931406   -374.23398    299.18318   -4317.8504    1006.7032    1119.5791    1065.9496     110.2386            0 
319100000    3.191e+08    295.41963       107143   -115.97147   0.81907956   -948.71348    2352.6177    482.35284   -766.29754   -63.969706   -277.40584    79.918228    60.856364    295.42207   -4311.5069    1065.3793    1142.5102    1051.8041    103.09987            0 
319200000    3.192e+08    292.14285       107143   -227.52159   0.81907956   -931.77087    2332.9421    86.393758   -117.89598   -651.06256     191.3376    306.09161    463.90765    292.15712   -4314.0056     1020.455    1212.9451     1040.056    108.77862            0 
319300000    3.193e+08    292.31905       107143    251.22687   0.81907956   -937.06264    2329.6194    600.58509   -756.19076    909.28629    176.35462   -313.07207    283.86717    292.33711   -4293.0908     1035.162    1135.0811    1067.8046    117.98036            0 
319400000    3.194e+08    291.35424       107143   -20.613518   0.81907956   -882.24996    2373.6502   -150.64267    342.12367   -253.32155    -164.0599    190.46505    14.560082    291.37863    -4274.686    1068.8178    1123.6929    1091.6301    108.29525            0 
319500000    3.195e+08    293.25584       107143    874.90869   0.81907956   -850.95559    2426.1951    757.38515     1198.865    668.47592    365.46718    1.3241614   -28.898791    293.27585   -4282.0043    1095.8046    1144.6116    1074.0909    116.54173            0 
319600000    3.196e+08    289.09935       107143   -247.76671   0.81907956   -852.92609    2377.7756     132.8897   -219.80436   -656.38547    263.68358    208.50012    -181.2657    289.11457   -4306.5322    1083.3205    1171.1055    1091.1174     108.0628            0 
319700000    3.197e+08    292.36393       107143   -806.89513   0.81907956   -914.68736    2352.4962    -942.9221   -479.36565   -998.39763    29.501944   -204.63138    -399.1111    292.38003   -4289.5558    1063.5609     1138.923    1065.4069    106.97764            0 
319800000    3.198e+08    291.06993       107143   -533.89299   0.81907956   -915.97604     2336.747    51.838077   -1099.7965   -553.72052    55.416309     117.4534    491.67477    291.08375   -4291.3514    1039.6538    1137.8662    1088.0128    109.84262            0 
319900000    3.199e+08    289.82586       107143    112.99009   0.81907956   -868.90365    2369.9168   -174.69655    378.33795    135.32887   -250.94575   -244.11135   -13.129936    289.83989   -4260.1371    1094.9688    1141.2311    1042.3135    112.72001            0 
320000000      3.2e+08    298.27514       107143    479.40586   0.81907956   -978.27198    2354.9697    374.08323    157.95439    906.17996   -472.25462   -354.71717   -130.68935    298.29031   -4304.0006    1065.9216    1134.4999    1017.3683    107.93882            0 
320100000    3.201e+08    299.16273       107143   -84.512478   0.81907956   -913.79418    2429.3663     317.2166   -505.47074   -65.283292   -230.87713   -120.34201    -47.43467     299.1788   -4288.2924    1049.9944     1189.698    1027.5727    107.23312            0 
320200000    3.202e+08    298.15034       107143   -291.43984   0.81907956   -936.77415    2395.0729   -273.27903    397.39191   -998.43239    767.27635   -233.19227   -72.151828    298.16452   -4277.1411    1061.0152    1122.0849    1040.0157    117.25115            0 
320300000    3.203e+08    291.00417       107143     23.80252   0.81907956   -918.25314     2333.735    478.09878   -733.66041    326.96919   -260.89842   -111.39127   -47.584921    291.02851   -4294.2364    1085.0116    1144.2346    1042.2299    104.50728            0 
320400000    3.204e+08    295.02222       107143     -257.101   0.81907956     -971.969    2324.9211   -320.31127    -297.6311   -153.36064   -452.63433    903.82589   -222.54624    295.03643   -4279.5603    1018.0948    1147.9257     1038.167     103.4037            0 
320500000    3.205e+08     286.4255       107143   -83.578939   0.81907956    -864.9725    2335.8488   -221.49425    114.73604   -143.97861   -446.61413    38.171385   -217.17039     286.4345   -4300.0028    1074.8271     1179.433    1071.9968    108.77338            0 
320600000    3.206e+08    297.65016       107143   -463.52722   0.81907956     -742.193    2584.0645   -479.97373   -296.60151   -614.00642    114.89832    371.00953   -188.27329    297.67281   -4296.9902     1118.054    1203.4829    1121.8768    111.38347            0 
320700000    3.207e+08    294.59248       107143   -753.47399   0.81907956   -946.65324    2345.4345   -898.33854   -841.61059   -520.47284    555.65345   -244.82355    140.80746    294.61023   -4253.7483    1010.9239    1140.6968    1041.6523    113.82202            0 
320800000    3.208e+08     300.6012       107143    536.09547   0.81907956   -772.88271    2586.3528   -100.60216    955.65748    753.23107    95.641648   -117.25823    880.48491    300.61377   -4259.4581    1070.2561    1187.8125    1118.2985    110.20826            0 
320900000    3.209e+08    293.12951       107143   -648.59691   0.81907956   -854.47682    2421.2621   -798.48231   -321.30481    -826.0036    377.44751     184.6604   -16.288744    293.14932   -4317.1092    1073.1549     1166.361    1112.1581    110.95836            0 
321000000     3.21e+08     292.5832       107143    449.39274   0.81907956   -913.34591     2356.288    627.62717    832.86347   -112.31243    144.26978   -130.31554    515.17446    292.59333   -4284.1253    1071.2509    1156.6576    1036.5166    106.35423            0 
321100000    3.211e+08     295.8678       107143    196.32824   0.81907956   -900.57407    2405.7654    212.35418   -1033.1456    1409.7761   -234.64362    534.52614   -384.41738    295.88847   -4288.2742     1052.175    1132.9874    1095.3043    107.23344            0 
321200000    3.212e+08    299.34601       107143    202.22097   0.81907956   -806.63352    2538.5751    -313.1863    439.83596    480.01325   -528.40015    360.13614   -364.76342    299.36082   -4265.2159    1112.0511    1157.7885    1081.1281    107.61475            0 
321300000    3.213e+08     292.6237       107143   -528.66103   0.81907956   -934.79532    2335.2912    73.734483   -961.71284   -698.00473    -387.4656    100.09565    148.19698    292.64599   -4308.4455    1049.8077    1140.1504    1069.6701    114.02197            0 
321400000    3.214e+08    292.20435       107143   -524.42546   0.81907956   -920.56311    2344.8372    310.57146   -798.01321   -1085.8346    147.98575    463.43811   -354.61488    292.22202   -4289.0225    1036.4996    1164.9492    1047.0114    119.99923            0 
321500000    3.215e+08    292.62729       107143   -284.27717   0.81907956   -918.41778    2351.7088   -135.35329   -831.83136    114.35316    -172.5037    214.97658     430.5289    292.64945   -4288.9824     1046.071     1127.573    1086.7768    110.14377            0 
321600000    3.216e+08     298.1255       107143    993.28289   0.81907956   -855.61455    2475.9549    1676.7839    923.82032    379.24449   -22.120932   -117.24958    377.98452    298.13602   -4303.1694    1090.8296     1170.434    1079.7676    106.52363            0 
321700000    3.217e+08    292.78466       107143    542.20097   0.81907956   -861.26252    2410.6227    620.60052   -136.12038    1142.1228    130.00902    32.591379   -825.40484    292.80082   -4266.8721    1088.4013    1161.9973    1048.6719    106.53897            0 
321800000    3.218e+08    299.22285       107143    766.01656   0.81907956     -886.151    2457.6814    200.28811    423.00497    1674.7566   -557.05441   -504.00265   -595.25119    299.23579    -4295.406      1104.34    1140.6367    1049.7045    114.57391            0 
321900000    3.219e+08    287.68987       107143    62.091313   0.81907956   -904.47642    2310.4742   -89.738494    499.26054    -223.2481    210.95646    529.32629   -194.25506    287.70065   -4299.7263    1063.1635    1176.0959     1043.111    112.87952            0 
322000000     3.22e+08    286.50546       107143    -126.2115   0.81907956   -954.95211    2246.7627    615.34455   -194.21704   -799.76201   -386.21399   -107.82305   -47.267394    286.51999   -4290.2676    1053.4924    1129.2463    1052.0267    100.55009            0 
322100000    3.221e+08     294.3139       107143   -446.61154   0.81907956   -850.72778    2438.2468   -360.36723    -273.8934   -705.57399   -478.03913   -216.27998    254.53763    294.32757   -4280.8185    1112.3707    1161.1357    1048.7038    107.88042            0 
322200000    3.222e+08    292.05365       107143    122.08661   0.81907956   -827.75243    2435.9637   -39.920473    523.09403   -116.91372   -393.90001   -7.3536897    167.91104    292.07217   -4267.1946    1083.2895    1174.0568    1078.2968    103.79899            0 
322300000    3.223e+08    292.62839       107143    432.92318   0.81907956   -879.30831    2390.8306    156.92216    523.45633    618.39106   -156.73105    111.00845   -236.46498    292.64565    -4320.365    1118.8478    1140.3694    1072.7765    109.06299            0 
322400000    3.224e+08    289.05229       107143     45.49959   0.81907956   -960.69973    2269.4761    34.605009    346.55251   -244.65875    756.62841   -191.54274   -293.36038    289.07622   -4255.8196     1062.019    1116.6047    1013.0598    103.43635            0 
322500000    3.225e+08    294.07512       107143   -20.764773   0.81907956   -897.50677    2388.7994   -745.33557    251.78826    431.25298   -694.58462   -133.27714   -405.07527    294.08613   -4301.1908    1053.4068    1173.5121    1060.7651    116.00005            0 
322600000    3.226e+08    294.24935       107143    61.776122   0.81907956   -935.98965    2352.2635    356.29394   -348.36493    177.39935   -739.75896   -618.55621    144.17457    294.26212   -4284.6582    1043.7306    1115.9238    1069.8193    119.19494            0 
322700000    3.227e+08    289.93219       107143     96.87851   0.81907956   -882.93441    2357.0743   -643.68842     902.3607    31.963249    337.20435    -681.6388   -31.763818     289.9494   -4315.0708    1051.2377    1192.4476    1075.9324    112.51872            0 
322800000    3.228e+08    292.90675       107143   -558.11588   0.81907956   -854.89963    2418.3499   -535.32063   -278.61659   -860.41042    207.77971   -197.88212   -133.65777    292.93436    -4295.226    1109.3598    1171.8512    1049.9355     109.1798            0 
322900000    3.229e+08    292.23616       107143   -229.85973   0.81907956   -867.91471     2397.841   -708.79126   -9.6462716    28.858352    212.06724   -251.53958    443.73612    292.25816   -4306.1186    1052.9728     1193.213    1081.8465    110.17165            0 
323000000     3.23e+08    299.60043       107143    373.83064   0.81907956   -958.62447    2389.4274    124.29463    756.88881    240.30848    661.57647   -460.49232    39.941943    299.61826   -4332.5527    1063.8577    1161.7361    1035.7578    112.57664            0 
323100000    3.231e+08    287.98404       107143   -514.90179   0.81907956   -895.40854    2322.8295   -1296.1158    216.16204   -464.75164    254.51956   -315.40786    103.48789    287.99805   -4262.0263     1091.565     1109.146     1064.426    101.48081            0 
323200000    3.232e+08    286.10803       107143    318.33187   0.81907956   -913.74672    2283.5268    328.37738    466.81642    159.80181    221.68291    543.70294    693.51672    286.11957   -4311.4586    1067.7502    1196.2989    1028.1499    105.51288            0 
323300000    3.233e+08    294.51204       107143   -238.00599   0.81907956   -794.60025    2496.5885   -858.71706    537.56692   -392.86783    -444.0332    -98.09534    -86.26101    294.52457   -4302.2735     1098.288    1205.3904    1087.5535    116.44136            0 
323400000    3.234e+08    295.59197       107143    -402.9261   0.81907956   -886.28699    2416.9701   -1252.6721     -622.893    666.78676      -413.54    243.48921    165.29359    295.60441   -4323.9414    1107.5228    1151.6619     1068.349    110.12075            0 
323500000    3.235e+08    284.66386       107143   -88.448212   0.81907956   -1015.3627    2165.7721    124.44248   -272.83967   -116.94745   -105.12225   -30.200139   -181.08193    284.67561   -4295.5847    1029.9483    1122.4245    1021.6174    106.23187            0 
323600000    3.236e+08    289.77741       107143   -542.67265   0.81907956   -888.03916    2350.2399    183.15025    -1238.006   -573.16216    112.79964    809.47276   -324.05216    289.79458   -4293.2609    1085.0465    1166.0927     1042.201     111.8816            0 
323700000    3.237e+08    291.20471       107143    864.81574   0.81907956   -889.02768    2365.2015    372.97662    768.62517    1452.8454    482.72052   -240.65167    415.07096    291.21835   -4295.0564    1041.5012    1132.0011    1112.0647     120.4618            0 
323800000    3.238e+08    290.47491       107143    347.76055   0.81907956    -850.7607     2395.313    279.46426    322.65007    441.16732    383.18134   -404.99674    511.88535    290.49087   -4302.0334    1092.7419      1177.27    1073.1901    108.07066            0 
323900000    3.239e+08    295.86359       107143    420.12681   0.81907956   -876.86733    2429.4251    258.93999      175.299    826.14145   -324.88628   -510.59006    602.33802     295.8804   -4285.4506    1067.2265     1151.109    1081.8115    108.43635            0 
324000000     3.24e+08     292.6113       107143   -39.858988   0.81907956   -865.98848    2403.9595   -483.19555     175.2926    188.32598   -215.56102   -648.86815   -943.87969    292.62735   -4273.0876    1077.8184    1133.3154    1089.2495    106.71579            0 
324100000    3.241e+08    300.06312       107143   -168.77237   0.81907956   -795.15059    2558.0719    184.80488    -274.8266   -416.29538    532.68763    579.04099    614.56977    300.09077   -4274.6149    1069.7522    1171.3845    1130.2928    108.03475            0 
324200000    3.242e+08     297.6712       107143   -66.654166   0.81907956   -888.13367    2438.3589    328.22472   -54.570271   -473.61695    315.52643     211.6545    -1175.456    297.68194   -4300.6923    1076.0787    1171.2659    1056.5495    108.66462            0 
324300000    3.243e+08    292.79568       107143   -446.78606   0.81907956   -761.03253    2510.9759    162.01094   -810.46731   -691.90182   -1038.7001    35.232073    656.98062    292.81512   -4271.6759    1101.6368    1170.9417    1123.6573    114.40757            0 
324400000    3.244e+08    287.83406       107143    516.65383   0.81907956   -959.80725    2256.7547    732.69553      901.096   -83.830036   -438.45902   -223.02036    113.37121    287.86567   -4323.3494    1033.0236    1160.0468    1053.5961    116.87564            0 
324500000    3.245e+08    291.65913       107143    285.85119   0.81907956   -937.15959    2322.1477    297.13987    47.926986    512.48673   -523.32012    26.529242   -211.98829    291.66882   -4319.7132    1080.7603    1150.2012    1040.5757     111.0164            0 
324600000    3.246e+08    284.90986       107143    1245.0074   0.81907956   -874.83145    2309.0525     1575.699    767.57393    1391.7492   -287.05038    45.107287    658.19479     284.9181   -4288.3108    1053.0964    1132.7941    1120.7026    106.88617            0 
324700000    3.247e+08    294.61087       107143    59.683823   0.81907956   -874.04645    2418.2468    1.4326155   -522.98939    700.60824    -326.4682   -32.499177   -168.34463    294.62242   -4309.4436     1091.198    1139.0139     1106.489    98.696233            0 
324800000    3.248e+08    292.35487       107143   -274.54996   0.81907956   -935.31494    2331.7674    192.38665   -778.56129   -237.47523    33.975402   -538.19142   -626.41887    292.37021   -4269.7212    1031.1836    1141.2569    1061.6567    100.30904            0 
324900000    3.249e+08    295.09336       107143   -480.19391   0.81907956   -869.25491    2428.4302   -433.63644   -610.37436   -396.57094    -352.9941    140.88599   -604.71586      295.102   -4288.4983    1093.6933    1164.5414    1062.4717    98.537002            0 
325000000     3.25e+08    289.80054       107143   -273.04802   0.81907956   -981.70229    2256.8352   -985.81269    89.062733    77.605881   -538.42472   -145.85434     85.60113    289.81821   -4291.1426    1017.8019    1126.4799    1052.8227    112.33571            0 
325100000    3.251e+08    292.62309       107143    516.33265   0.81907956   -977.90227    2292.1774    304.02774    807.35054    437.61967    -444.7405   -350.07387   -443.90326    292.63992   -4278.9188    1056.7771    1101.0687    1036.9598    106.21098            0 
325200000    3.252e+08    299.54086       107143   -141.86746   0.81907956   -899.68715     2447.699   -954.51741     249.8433    279.07173   -118.05976     222.6516     196.4926    299.55385     -4302.15    1047.1418     1164.955    1085.7802    104.58593            0 
325300000    3.253e+08    295.51704       107143    316.40357   0.81907956   -867.33368     2435.086    652.73477   -124.08237    420.55832   -656.87416    91.187847   -120.62804    295.53763   -4267.3112    1079.1868    1137.9741     1072.744    110.07268            0 
325400000    3.254e+08    293.30734       107143   -348.66506   0.81907956   -849.85249    2427.8737   -92.185502   -321.70574   -632.10393   -294.66303    895.93762    86.502072    293.32997   -4302.1959    1084.1216    1201.2595    1052.4713    114.49106            0 
325500000    3.255e+08    292.62382       107143     641.8599   0.81907956   -1061.8075    2208.2802    474.85008     920.3316    530.39802   -350.10688   -669.97564   -4.8218883    292.63265   -4323.4501    1028.9175    1111.8446    1008.6483    112.23221            0 
325600000    3.256e+08    294.73103       107143   -698.21501   0.81907956    -834.3536    2459.2825   -658.57181   -72.950922   -1363.1223   -359.02697    674.01816     799.4926    294.74097   -4279.5426    1074.9874    1167.9407    1081.1981    121.06283            0 
325700000    3.257e+08    299.90726       107143   -445.12383   0.81907956   -902.92047    2448.5602   -306.26252   -868.56096   -160.54801   -558.16783   -481.25545    567.23911    299.91941   -4290.4771    1062.8505    1161.9887    1060.5741    102.14332            0 
325800000    3.258e+08    294.22786       107143    187.82156   0.81907956   -891.47283    2396.5403    453.16432    279.13235   -168.83198    277.51559   -372.78468    397.60818     294.2363   -4276.3767    1066.3948    1164.5941    1039.0679    114.84697            0 
325900000    3.259e+08    291.99256       107143    1033.7586   0.81907956   -973.40555    2289.6279    1082.5619     1120.033    898.68081   -83.697672   -58.645932   -128.28271    292.01356   -4294.7842     1017.417    1151.3476    1039.8444    112.76967            0 
326000000     3.26e+08    296.44525       107143    399.84973   0.81907956   -857.06473    2455.7278    1010.2463    267.76374     -78.4608    357.09035    1032.1081    1079.2885     296.4664   -4263.7265     1074.916    1131.3766    1086.8789    113.49023            0 
326100000    3.261e+08    291.90081       107143   -443.00827   0.81907956   -917.91541    2344.0928   -553.44505   -849.85498    74.275225   -174.88482    608.23711    360.34095    291.91799   -4282.1604    1061.0628    1108.3725    1091.1479    103.66178            0 
326200000    3.262e+08     289.7224       107143   -1040.1609   0.81907956    -856.9086    2380.7557   -1123.7094   -1347.0442   -649.72919   -6.9635345   -291.23961   -118.33401    289.73448   -4296.8599    1105.4839    1130.5013    1079.8099    124.15623            0 
326300000    3.263e+08    289.47601       107143    321.24843   0.81907956   -870.06964    2364.8412    348.09621    257.43873    358.21033   -233.69458    -33.51877    639.23739    289.48624   -4265.9499    1065.9996    1121.0219    1094.3248    114.53395            0 
326400000    3.264e+08    295.21879       107143   -705.38594   0.81907956   -902.52932    2396.5575   -292.59376   -1410.2322    -413.3319    -273.8392   -746.30843      221.627    295.23425   -4274.0645     1078.721    1108.3406    1080.8106    103.66292            0 
326500000    3.265e+08    288.44965       107143    701.41106   0.81907956   -912.35501    2311.0862    397.64742    423.33677     1283.249    914.85653    284.44037    419.95942    288.46666   -4253.0794    1039.1179    1139.4698      1055.87    106.26654            0 
326600000    3.266e+08    289.81501       107143     1.454154   0.81907956   -994.91253    2243.7867    871.49389   -672.63835   -194.49307    26.728058    203.86962    217.21268    289.82734   -4313.7385    1043.6713    1102.5554    1066.2169    106.38244            0 
326700000    3.267e+08    288.59548       107143   -10.682884   0.81907956   -912.68335    2312.3876    -163.8283    122.75352    9.0261321    168.05652    263.92152    298.81146    288.61107   -4292.8091    1056.7849    1125.4517    1086.9513    110.93788            0 
326800000    3.268e+08    288.37719       107143    -923.9402   0.81907956   -945.83443    2276.7971   -264.18994   -958.55151   -1549.0791   -356.59372   -290.57229    259.30336    288.39183   -4316.9427    1060.8733    1119.4233    1079.3632    111.44843            0 
326900000    3.269e+08    296.65901       107143    304.50974   0.81907956   -863.01792    2452.1634    1.7283631   -511.54578    1423.3466   -30.008954     103.7228      667.444    296.67138   -4283.9556    1093.6923    1134.8248     1086.809    105.61145            0 
327000000     3.27e+08     289.4977       107143    105.74552   0.81907956   -888.95462    2346.1987    114.49494    708.96868   -506.22708    62.447143   -211.39316    429.30599     289.5103   -4288.5206    1015.4328    1190.3537    1085.4757    108.30385            0 
327100000    3.271e+08    288.01878       107143   -373.56255   0.81907956   -966.40536    2252.2209   -1640.5558   -34.234296    554.10243    50.114198    82.085625   -293.75223     288.0348   -4289.9353     1022.667    1105.6979    1088.6576    106.50737            0 
327200000    3.272e+08    294.70211       107143    467.81496   0.81907956    -944.0453    2349.2675    -147.0973    1373.9578    176.58437    -620.4834    649.11283   -460.33774    294.70588   -4271.9981    1023.3002    1138.4078     1052.634    113.61084            0 
327300000    3.273e+08    293.57543       107143   -603.44689   0.81907956   -899.81751    2380.9046   -414.94861   -373.85626   -1021.5358   -197.62701   -13.572044   -175.76733     293.5857   -4300.6522    1077.4608    1168.0199    1034.5862    120.76772            0 
327400000    3.274e+08    285.37126       107143    30.045013   0.81907956   -961.36286    2227.6772     160.0847    406.40442   -476.35408   -171.19977    42.045631    468.54342    285.39026   -4322.8388    1047.3226    1133.3997    1064.9388    115.81486            0 
327500000    3.275e+08    291.37817       107143   -153.19786   0.81907956   -824.30869    2431.8589     219.3992   -300.57942   -378.41337   -322.62215   -620.38252   -436.08649    291.37835   -4238.1706    1032.8967    1159.9274    1112.4696    108.56817            0 
327600000    3.276e+08    295.76505       107143    265.04417   0.81907956   -840.76941    2464.4219    903.86708   -483.37509    374.64053   -496.09926    295.33543    478.71403    295.78263   -4268.9729    1062.1767    1173.3925    1071.4726    121.16168            0 
327700000    3.277e+08    298.33652       107143   -868.12833   0.81907956   -934.48518    2399.4424    255.49997   -1205.5718   -1654.3132   -108.65078   -289.09228   -585.91887     298.3484   -4261.8861    1043.1408    1170.8839    1000.6635    112.71271            0 
327800000    3.278e+08     294.6689       107143    166.20421   0.81907956   -888.46467    2404.4771   -532.92416    1208.6753   -177.13855    192.28625   -503.59651    445.17961    294.69362   -4256.5721    1076.9685    1136.5262    1039.6224    114.99031            0 
327900000    3.279e+08    293.62414       107143    674.76553   0.81907956    -856.0662    2425.2003    526.16834    882.69167    615.43659   -303.37977    992.52726    677.27542    293.64221   -4277.6665    1109.2551    1160.2902    1046.5303    105.52478            0 
328000000     3.28e+08    300.78926       107143    534.06866   0.81907956   -968.84653    2392.4906    247.54418    911.60611     443.0557   -46.810137    43.810078    124.94341    300.79998    -4310.611    1035.1311    1172.2165    1032.8766    101.54025            0 
328100000    3.281e+08    296.48068       107143   -936.70593   0.81907956   -845.71604    2467.4724   -1179.3686   -587.18377   -1043.5654   -258.77045    237.41081    34.855898    296.49517   -4295.7264    1084.8876    1151.4429    1098.6172    115.06258            0 
328200000    3.282e+08    293.58749       107143    519.45575   0.81907956   -943.16428    2337.6926    139.39453    919.60158    499.37115   -23.018509    -508.9904    185.59534    293.59543   -4268.7724    1021.5626    1155.6307    1039.9868    108.42803            0 
328300000    3.283e+08    295.60624       107143   -58.834788   0.81907956   -962.10395    2341.3126     334.5815   -547.99743    36.911561   -482.34908   -811.70885     114.2084     295.6279   -4282.9225    1063.0666    1101.1008    1059.3152    97.335967            0 
328400000    3.284e+08    287.84539       107143   -37.784894   0.81907956   -872.65953     2344.029   -351.79968    188.16531    50.279687   -437.79311   -104.08877    165.49392    287.85764   -4285.0696    1076.3841    1159.4987    1071.6954    104.83185            0 
328500000    3.285e+08    288.32842       107143     360.7442   0.81907956   -907.11966    2314.9668   -3.5020362     221.1893    864.54533    426.43293   -129.94113   -448.79211    288.33268   -4287.0289    1085.3565    1136.8651    1054.8059    102.88173            0 
328600000    3.286e+08    293.79838       107143   -323.54214   0.81907956   -901.71652    2381.4971   -1044.8486     299.2102     -224.988   -128.42656    104.17841    479.05133    293.81345   -4287.0748    1104.3854    1118.8018    1055.0651    107.10602            0 
328700000    3.287e+08    296.78035       107143    398.99975   0.81907956   -891.28696    2425.2503    481.03324    -295.9744    1011.9404   -650.34148    657.51663   -19.641211     296.7858   -4293.9935    1049.4657    1179.7419    1057.1952    116.30372            0 
328800000    3.288e+08    291.59741       107143    857.12779   0.81907956   -771.12255    2487.4951     1696.223    584.23995    290.92043    -36.97598    138.75579   -217.48232     291.6151   -4263.3662     1069.467    1182.2971    1125.2309    115.24865            0 
328900000    3.289e+08    293.57368       107143   -381.33491   0.81907956   -889.85414    2390.8485   -384.25843   -538.85357   -220.89274   -8.6722769    264.97003   -1202.7088    293.58102   -4302.4674    1077.6026    1131.0849    1090.8362    113.08955            0 
329000000     3.29e+08    298.45485       107143    633.92697   0.81907956   -911.55674    2423.6932   -12.432923    304.35007    1609.8638   -388.37233    186.56472    1008.2884     298.4639   -4296.0442    1031.3579    1135.4703    1100.7527    116.90656            0 
329100000    3.291e+08    298.11758       107143    303.86875   0.81907956   -896.91801    2434.5629     764.9688   -397.89099    544.52844   -421.44864    91.676151    783.66968    298.13417   -4277.3711    1071.4226    1160.8178    1043.4488    104.76398            0 
329200000    3.292e+08     293.0221       107143   -390.77741   0.81907956   -792.28785    2482.2507    110.93994   -132.26502   -1151.0072   -895.48257    178.48088   -212.00448    293.04454   -4270.2729    1035.1776    1159.2839     1170.091    113.43252            0 
329300000    3.293e+08    300.68253       107143    87.018606   0.81907956   -935.30604    2424.8383    -4.298399    215.18369    50.170532   -248.32302    206.29533   -164.42225    300.70434   -4313.7444    1042.3871      1193.34    1038.7637    103.94759            0 
329400000    3.294e+08    291.50686       107143   -27.370823   0.81907956    -851.9127    2405.6931   -554.45721   -81.005913    553.35066   -312.19816    81.235865    56.111728    291.52839   -4300.9615    1076.5519    1151.7195    1113.0183    107.75906            0 
329500000    3.295e+08     290.3786       107143     45.25864   0.81907956   -887.53089    2357.4664   -232.88036    68.832907    299.82337     11.42566    490.56088    521.20396    290.38914   -4241.9892    1062.7429    1153.3594    1031.7791    106.57694            0 
329600000    3.296e+08    292.10531       107143    325.29555   0.81907956   -847.45845     2416.835    301.08617   -327.74633    1002.5468   -525.26829   -57.136304   -516.43415    292.12127   -4292.6517    1102.8362    1178.4741    1050.9412    112.94171            0 
329700000    3.297e+08    291.94699       107143    105.40307   0.81907956   -936.88923     2325.635    258.09368    376.96114   -318.84561    251.01984   -403.27683    134.97618    291.94797   -4282.0952    1075.6679    1105.6774    1057.0091    106.85157            0 
329800000    3.298e+08    293.64092       107143    300.98144   0.81907956   -910.28056    2371.1734    175.18188   -120.25266    848.01508     283.2898    130.49676    27.335091    293.65419   -4250.1778     1061.188    1127.8354    1045.3533    105.52051            0 
329900000    3.299e+08    299.00483       107143   -508.05363   0.81907956   -907.01276    2434.3832   -532.94441   -232.23664   -758.97984    264.33394   -63.069165   -449.04545    299.01674   -4292.3475    1073.5563     1126.744    1068.6146    116.41985            0 
330000000      3.3e+08    289.26285       107143   -493.08248   0.81907956   -851.16092    2381.3679   -1158.5264    17.246342   -337.96737    -148.9344   -118.76271   -384.09862    289.27253   -4261.8732     1031.009    1147.0472    1121.9308     110.7253            0 
Loop time of 5750.48 on 48 procs for 20000000 steps with 3750 atoms

Pair  time (%) = 1870.29 (32.5241)
Bond  time (%) = 408.635 (7.1061)
Neigh time (%) = 1022.66 (17.7838)
Comm  time (%) = 1730.11 (30.0864)
Outpt time (%) = 30.8598 (0.536648)
Other time (%) = 687.928 (11.963)

Nlocal:    78.125 ave 90 max 59 min
Histogram: 1 0 1 7 4 6 11 7 8 3
Nghost:    1259.83 ave 1287 max 1234 min
Histogram: 5 3 4 5 6 6 9 3 5 2
Neighs:    5964.83 ave 7174 max 4320 min
Histogram: 1 0 1 8 5 13 4 11 3 2

Total # of neighbors = 286312
Ave neighs/atom = 76.3499
Ave special neighs/atom = 6.26667
Neighbor list builds = 2231984
Dangerous builds = 0
System init for write_restart ...
Setting up run ...
Memory usage per processor = 6.8651 Mbytes
Step dummytim Temp Volume Press Density PotEng TotEng Pxx Pyy Pzz Pxy Pyz Pxz myT molPE1 molPE2 molPE3 molPE4 molPE5 molPE6 
330000000      3.3e+08    289.26274       107143   -493.11011   0.81907956    -851.1648    2381.3627   -1158.5763    17.230837   -337.98484    -149.1164   -118.77009   -384.05247    289.27253   -4261.8733    1031.0074    1147.0454    1121.9306    110.72505            0 
330100000    3.301e+08    290.78765       107143   -121.86338   0.81907956   -805.86164    2443.7069    234.87312   -799.93643    199.47317   -208.74002    158.47567   -640.67623    290.79976   -4267.3113    1073.8371    1151.3473    1122.5617    113.70362            0 
330200000    3.302e+08    288.92318       107143    6.9557621   0.81907956    -849.7018    2379.0311    186.85711   -117.25539   -48.734434    351.96289   -115.54688   -139.50948    288.94274   -4279.4793    1107.9266    1170.2059     1050.175    101.47001            0 
330300000    3.303e+08    289.63105       107143    15.509812   0.81907956   -863.37501    2373.2685    89.500621   -19.307812   -23.663372    108.06273    607.97328   -83.949119    289.65251   -4259.3395    1067.3566    1139.1861    1079.7404    109.68132            0 
330400000    3.304e+08    288.27804       107143   -129.30948   0.81907956   -838.98442    2382.5391    3.4287125   -758.35385     366.9967   -610.39082   -225.82287    369.18847    288.29236   -4282.7883    1053.7174    1187.2307    1101.6573    101.19845            0 
330500000    3.305e+08    289.96076       107143   -861.21203   0.81907956   -844.51657    2395.8114   -1831.5793   -223.60564   -528.45116   -156.75181   -605.77216   -778.61753    289.97609     -4262.12    1070.5379    1169.7682    1061.6386    115.65883            0 
330600000    3.306e+08    294.22583       107143    -493.0021   0.81907956   -955.35388    2332.6365    402.12354   -953.41246   -927.71739   -860.41366    572.96631    271.45331    294.23774   -4308.7805    1052.3623     1140.668     1048.212    112.18426            0 
330700000    3.307e+08    292.84122       107143   -245.53276   0.81907956    -979.7433     2292.774   -117.68567   -280.72602   -338.18659    -247.3793    83.359025    -100.5071    292.84993   -4301.4475    1037.1137    1123.6974    1049.4957    111.39741            0 
330800000    3.308e+08    288.94202       107143    174.73631   0.81907956   -920.46371    2308.4798    -587.8546    367.36598    744.69754   -413.18513   -59.245633   -417.88735    288.96182   -4299.1514    1042.5415    1139.0531    1090.1172     106.9758            0 
330900000    3.309e+08    290.36473       107143    28.144257   0.81907956   -791.57186    2453.2705   -163.09144    769.41287   -521.88866   -548.12267    461.43377    763.97563    290.38376   -4274.2399    1125.2354    1137.8765    1107.9655    111.59057            0 
331000000     3.31e+08    289.08431       107143    309.53808   0.81907956   -852.00513    2378.5285    77.642029    1090.6634   -239.69122   -136.25032    6.3711646   -210.93011    289.09391   -4290.7576    1079.0837    1175.7185    1067.0682    116.88204            0 
331100000    3.311e+08    293.32373       107143     372.4708   0.81907956   -930.29946    2347.6099    174.57517    415.09517    527.74208    238.94391    162.71548   -461.07874    293.33541   -4287.8149    1038.2113    1135.6206    1070.6253    113.05826            0 
331200000    3.312e+08    292.99032       107143   -731.92953   0.81907956   -810.88052     2463.303   -1053.1469   -882.35999   -260.28166    143.53175   -252.91502   -645.71697    293.00663   -4286.6157     1138.473    1131.6125    1098.7924    106.85732            0 
331300000    3.313e+08    293.62851       107143   -833.07679   0.81907956   -887.98998    2393.3253   -1054.7419   -1049.1073   -395.38119     438.1679   -521.77173    254.99065    293.63878    -4282.225    1040.7473     1158.987     1089.029    105.47172            0 
331400000    3.314e+08    286.03702       107143     486.5963   0.81907956   -864.33721    2332.1428    -79.89396    334.42369    1205.2592   -544.27213   -86.248052   -649.20828     286.0552   -4277.3205    1086.7287     1140.807    1070.9154    114.53218            0 
331500000    3.315e+08    297.64101       107143   -240.78488   0.81907956   -955.66014     2370.495   -255.28931   -922.86341    455.79807   -282.59611   -168.22022   -224.12676    297.66471   -4299.3306    1066.9116    1133.6247    1033.7367    109.39747            0 
331600000    3.316e+08    297.63343       107143   -238.76822   0.81907956   -907.24282    2418.8277   -29.375264   -1026.0738    339.14436   -362.69899   -95.961806    284.20774    297.66483   -4290.0129    1048.0238    1176.3727    1052.2082    106.16535            0 
331700000    3.317e+08    291.41593       107143     681.9894   0.81907956   -883.80879    2372.7807    982.39802    119.78662    943.78356    393.36532    69.227901    25.184596    291.42609   -4322.3413    1096.0267    1180.0014    1050.9347    111.56979            0 
331800000    3.318e+08    287.47135       107143    115.50582   0.81907956   -850.56887    2361.9398    781.02292   -32.536318   -401.96915   -575.90104   -231.17788   -393.56854    287.49759   -4280.9228    1109.7439    1137.8814    1070.4601    112.26859            0 
331900000    3.319e+08    297.09436       107143    605.01559   0.81907956   -840.15684    2479.8895    448.15356    435.85185    931.04136   -124.41362    46.347741    404.61129    297.11054    -4292.491    1102.1007    1158.7144    1081.2958    110.22321            0 
332000000     3.32e+08    294.57418       107143    191.00577   0.81907956   -903.17115     2388.712   -124.55849    311.37406    386.20173   -584.38511    169.66885    87.869771    294.57867    -4265.783    1047.3656    1159.4157    1048.2775    107.55314            0 
332100000    3.321e+08    290.29734       107143   -25.875306   0.81907956    -928.3486    2315.7407   -305.74629     244.7695   -16.649129   -188.26699   -109.57977     71.50365    290.30654   -4260.6766    1052.5595    1129.9851    1046.8649    102.91839            0 
332200000    3.322e+08    291.06054       107143    -10.91086   0.81907956   -826.01583    2426.6023   -386.64513   -175.22652    529.13907   -51.475991     64.14333    167.90386    291.07614    -4298.182    1060.4919    1157.7516    1147.2915    106.63121            0 
332300000    3.323e+08     296.5943       107143   -260.12013   0.81907956   -891.16401    2423.2942   -293.94395   -22.956477   -463.45997   -159.66193    50.467602   -456.35084    296.60142     -4313.34     1046.499    1173.0917    1083.0375    119.54783            0 
332400000    3.324e+08    290.42176       107143     36.65285   0.81907956   -994.08565     2251.394    273.11563     60.73209   -223.88917   -54.252632   -704.64206     350.0175    290.43764   -4289.4033    1038.2453    1088.3812    1060.9506     107.7406            0 
332500000    3.325e+08    298.00666       107143    390.98947   0.81907956   -941.72213    2388.5193    344.80057    460.53795    367.62988     501.0481    10.958586   -66.766302    298.01236   -4304.7799     1055.728    1171.6512    1021.2302    114.44837            0 
332600000    3.326e+08    296.72707       107143    182.79572   0.81907956   -870.30488     2445.637    268.50139    380.68953   -100.80376    437.26611    390.09974   -339.51715    296.73446   -4241.2475    1082.0481    1119.8995    1077.6014    91.393618            0 
332700000    3.327e+08     293.4071       107143    78.163885   0.81907956   -894.28435    2384.5567    -229.6024    470.49372   -6.3996622    23.508188   -173.27668    1017.3868    293.42184   -4260.7142    1082.5693    1123.6329    1049.8258    110.40188            0 
332800000    3.328e+08    294.62813       107143   -349.99454   0.81907956   -990.52999    2301.9561    -274.4138   -224.47517   -551.09466    170.35157   -166.05006   -57.393545     294.6397   -4296.1377    1042.3847    1116.3622    1037.7795    109.08138            0 
332900000    3.329e+08    290.98549       107143    61.371759   0.81907956   -853.22307    2398.5564    -102.7626    172.31762    114.56026   -352.19225   -13.153956    471.84678    290.99827    -4276.783    1044.4799    1160.1493    1112.3276    106.60317            0 
333000000     3.33e+08    294.11614       107143    474.38128   0.81907956   -832.12374    2454.6409     823.1376     740.7867   -140.78044    642.61942    106.64507    568.90731    294.13225   -4293.2786    1097.8361    1142.0666    1105.2466    116.00554            0 
333100000    3.331e+08    299.19674       107143    168.69069   0.81907956   -871.84982    2471.6908     834.1261   -373.76978    45.715751   -184.22245   -304.20702    -271.3638    299.20952   -4282.1402    1070.1362    1179.5694    1052.0856    108.49922            0 
333200000    3.332e+08    291.14121       107143    432.81914   0.81907956   -930.49564     2323.024    72.741975    392.94048    832.77496   -106.69252    465.33514   -123.44278    291.15008   -4290.1557    1074.0123    1127.4125     1046.531    111.70423            0 
333300000    3.333e+08    289.40938       107143    206.66763   0.81907956    -895.3051    2338.8612    53.219818    185.25239    381.53068   -281.78901   -102.35582    103.40725    289.42167   -4267.4067    1053.6004    1153.4611    1054.2285    110.81156            0 
333400000    3.334e+08    291.77223       107143   -25.281853   0.81907956   -928.86441    2331.7069    489.61613   -109.10467   -456.35703    332.91271    111.99805   -146.51694    291.77988   -4288.5057    1060.3806    1148.4848    1039.5131    111.26281            0 
333500000    3.335e+08    290.16603       107143    103.41184   0.81907956   -868.21981    2374.4021   -601.44914    371.46882    540.21585   -20.275109    307.74808    670.15251    290.17203   -4302.4527    1049.9955    1204.4927    1064.3093    115.43538            0 
333600000    3.336e+08    293.60916       107143   -752.80639   0.81907956   -932.90458    2348.1945   -527.40373   -601.22255   -1129.7929   -364.79363    99.209644   -123.33879    293.61582   -4326.9165    1094.0496    1151.6347    1037.6785    110.64911            0 
333700000    3.337e+08    293.54271       107143   -118.29431   0.81907956   -954.68686    2325.6696   -395.27028    565.19472   -524.80738    290.46531    188.72794   -777.69261    293.56548   -4300.3916    1041.2989     1134.665    1060.1711    109.56977            0 
333800000    3.338e+08    296.61808       107143    739.93458   0.81907956    -842.4333    2472.2906    386.24968    1318.9149    514.63918    185.54137    293.52544    23.590065    296.62752   -4260.7754    1046.4471    1153.8594    1102.9421    115.09356            0 
333900000    3.339e+08    301.49524       107143   -436.41516   0.81907956   -861.26237    2507.9641     -719.524   -506.63781   -83.083655    33.448882   -437.36813    403.62445    301.50608   -4276.3716    1071.2239    1121.0335    1119.2773    103.57448            0 
334000000     3.34e+08    290.97097       107143    5.6023857   0.81907956   -962.21252    2289.4046    384.79332   -214.45925   -153.52691   -288.55332   -94.451229   -332.23759    290.98643   -4294.5438    1041.2817    1140.4993    1026.2792    124.27107            0 
334100000    3.341e+08    295.88505       107143   -257.01535   0.81907956   -957.76605    2348.7662   -368.74253    -11.77904   -390.52448   -632.39917   -119.82562     113.1853    295.90761   -4284.3835    1011.8255    1167.6498    1040.2715     106.8708            0 
334200000    3.342e+08    293.42169       107143    540.68296   0.81907956   -1014.9257    2264.0784    1358.8565    33.800524    229.39182   -249.52108    954.54246    601.58228    293.43254    -4280.284    1027.6762    1144.5929    989.07734    104.01182            0 
334300000    3.343e+08    302.63867       107143    316.00227   0.81907956   -963.83669    2418.1677    37.181754    729.34407    181.48097    544.75084   -245.91459   -144.32757    302.65472   -4275.3087    1038.5724    1141.1376    1023.7627    107.99935            0 
334400000    3.344e+08    304.39162       107143   -796.41679   0.81907956   -898.73084    2502.8629   -925.39619   -514.70794   -949.14625   -143.92704   -51.965264   -427.85071    304.40331   -4274.4819     1043.747    1172.5283    1052.3984    107.07738            0 
334500000    3.345e+08    289.77007       107143    242.58057   0.81907956   -895.89401     2342.303    1094.1676   -562.39411    195.96822   -394.29223    628.77965    346.35693    289.78008   -4284.1188    1055.4843    1166.0747    1055.4811    111.18466            0 
334600000    3.346e+08    288.63162       107143    402.26076   0.81907956   -925.98253    2299.4922    499.53004    350.55485    356.69741    115.51223   -341.46452    199.02746    288.64391   -4281.1046    1042.1296    1141.1056    1063.4378    108.44912            0 
334700000    3.347e+08    289.67523       107143    242.19605   0.81907956    -847.4307    2389.7064    701.78136   -66.719639    91.526427   -183.95547   -473.90007    234.67397     289.6938   -4294.5526    1069.6065    1146.4286    1124.2149    106.87183            0 
334800000    3.348e+08    292.25473       107143   -309.41537   0.81907956   -986.95795    2279.0052   -222.98264   -849.56119    144.29771   -54.626497    707.20635    250.24995    292.27771   -4291.1059    1068.7806    1087.4791    1034.2065    113.68178            0 
334900000    3.349e+08    296.64084       107143   -23.592847   0.81907956   -897.54166    2417.4366   -525.39718   -41.065756    495.68439   -378.43473    162.07021   -60.216547    296.65694   -4288.2409    1079.8186    1126.6301    1075.8131     108.4375            0 
335000000     3.35e+08    292.41157       107143   -1246.6487   0.81907956   -939.28181    2328.4341   -945.19488   -1038.3128   -1756.4385    206.74429    97.132907   -356.59361     292.4258   -4299.3628      1076.51    1131.6385    1045.3985    106.53393            0 
335100000    3.351e+08    293.41642       107143      302.261   0.81907956   -944.82647    2334.1187    390.21428    280.33278    236.23595    254.04642   -141.83819   -891.72484    293.42927   -4311.8442    1040.2212    1168.1913    1040.3844    118.22085            0 
335200000    3.352e+08     293.5071       107143     -92.4463   0.81907956   -874.42645     2405.532   -478.09178    240.18849   -39.435615     250.3216    290.15958   -390.83748    293.52089   -4290.3043    1073.6299    1175.5989    1054.6648    111.98425            0 
335300000    3.353e+08    295.96489       107143    240.20241   0.81907956   -852.73491    2454.6896    -170.5355    736.66538    154.47736    404.56862   -421.98628   -139.71078    295.97692   -4271.0492    1065.3808    1165.4378    1075.9463    111.54943            0 
335400000    3.354e+08    290.77522       107143   -265.07565   0.81907956   -983.89664    2265.5329   -11.827164   -632.26697   -151.13283   -295.56158   -701.09638     154.5012    290.79361   -4288.9355    1047.4077    1115.2566    1039.8654    102.50926            0 
335500000    3.355e+08     288.0991       107143    44.977011   0.81907956   -802.01737    2417.5064   -569.34414    240.17802    464.09716    129.76511   -479.81264   -356.92336    288.11031   -4289.5728    1087.4115    1184.4439    1104.9349    110.76518            0 
335600000    3.356e+08    292.50338       107143   -107.83276   0.81907956   -865.92318    2402.8187   -376.27743    704.30043   -651.52127    151.80066   -158.08943   -84.910808     292.5134   -4296.1137    1070.0824    1163.8696     1092.462    103.77651            0 
335700000    3.357e+08    289.86355       107143    45.035945   0.81907956   -884.13456    2355.1071      197.153   -374.94339    312.89822    21.719279   -116.19942     340.7886    289.87387   -4295.7174    1043.5178    1187.8078    1070.9432    109.31394            0 
335800000    3.358e+08    285.37903       107143    61.260096   0.81907956   -891.41983    2297.7071    741.84016   -158.55049   -399.50938   -591.14809    463.54938      527.956     285.3893   -4307.5951    1086.1538     1141.452    1075.4607    113.10875            0 
335900000    3.359e+08    294.08785       107143    3.7687262   0.81907956   -848.59326    2437.8552   -307.46702   -496.79311     815.5663   -538.82554   -72.658782    465.41489    294.10242    -4293.172    1079.0721    1146.5027    1091.4701    127.53384            0 
336000000     3.36e+08    287.48186       107143    17.045866   0.81907956   -935.37135    2277.2548   -201.35501    36.503887    215.98872   -128.84672    188.89162   -377.95385    287.49128   -4273.1933    1071.6338    1112.2166    1051.8512    102.12022            0 
336100000    3.361e+08    298.23494       107143   -348.23662   0.81907956   -975.59384    2357.1986   -251.36746   -498.04274   -295.29966    395.68388   -252.50165    102.66275    298.24422   -4307.1786    1039.8582    1125.3312    1057.0175    109.37791            0 
336200000    3.362e+08    291.33978       107143   -435.17257   0.81907956   -888.31806    2367.4206   -668.82518   -440.18666   -196.50586     45.33289   -208.48279    139.89131    291.36161   -4244.2029    1067.8378    1147.4725    1025.3805    115.19402            0 
336300000    3.363e+08    292.26942       107143   -232.14278   0.81907956   -892.42559    2373.7019   -16.980207   -234.67188   -444.77624    -88.60296   -706.84047   -376.69467    292.28076    -4301.321    1077.4597    1161.3157    1058.1911    111.92887            0 
336400000    3.364e+08    286.61157       107143   -716.47882   0.81907956   -834.92701    2367.9736   -263.82609   -1194.4187    -691.1917    440.30816    423.74945    149.32959    286.63281   -4297.6573    1070.0088    1161.3727    1126.0031    105.34576            0 
336500000    3.365e+08    290.13869       107143    744.40338   0.81907956   -888.61824    2353.6981    521.38986    1015.9104    695.90991   -383.49458   -626.46667    -96.37575    290.16183   -4264.5961    1049.3969    1163.3431    1053.3508    109.88702            0 
336600000    3.366e+08    283.57239       107143   -60.842797   0.81907956   -906.58222    2262.3554    370.95929   -311.62637   -241.86131   -192.28105    290.85865    283.03997    283.57783   -4291.2567    1075.6174    1144.4308    1051.0329     113.5934            0 
336700000    3.367e+08    301.93564       107143    100.18196   0.81907956   -896.59408    2477.5538   -153.68315    667.80951   -213.58047   -26.262565    168.78525   -217.67158    301.95457   -4280.6467    1081.2509    1138.8881    1050.8967    113.01696            0 
336800000    3.368e+08     293.5292       107143   -269.21029   0.81907956   -998.79311    2281.4124    -540.4068   -700.11103    432.88697   -573.50967    273.41595    35.768131    293.53919   -4305.6895    1040.0646    1142.2375     1021.909     102.6853            0 
336900000    3.369e+08    290.99011       107143   -244.09249   0.81907956   -962.39874    2289.4323   -148.88441   -45.320711   -538.07236    567.68004    54.733064    534.88723    290.99973   -4265.8201    1041.3934    1103.0225    1058.1406     100.8649            0 
337000000     3.37e+08    291.46646       107143   -68.359085   0.81907956   -943.40464    2313.7497   -177.35817    44.851527    -72.57061   -612.28715   -89.172601   -253.47568    291.47949   -4315.1768    1070.0675    1152.2569    1039.0976    110.35001            0 
337100000    3.371e+08    299.43081       107143    898.41156   0.81907956   -912.13648    2434.0198    328.53997    698.38908    1668.3056      211.559    198.03084    622.41037    299.44955   -4319.3587    1067.0293     1145.983     1077.154    117.05602            0 
337200000    3.372e+08    288.74049       107143    341.09795   0.81907956   -933.96074    2292.7306    672.59177     28.27379    322.42829   -442.23659    581.02553    -266.4855    288.75008   -4287.5181    1065.5472    1139.4697    1041.2071    107.33334            0 
337300000    3.373e+08    288.44107       107143    386.08308   0.81907956   -880.61296    2342.7324    335.99158    227.09282    595.16484    519.67167   -504.86063   -531.62862    288.45117   -4274.7898    1072.6948    1146.9444    1060.8179    113.71974            0 
337400000    3.374e+08    287.27118       107143   -18.207801   0.81907956   -898.23682    2312.0349   -69.761244   -374.75931    389.89715   -5.6365061   -662.56331   -216.55673    287.29214   -4285.4052    1038.0911    1172.4764     1061.736    114.86494            0 
337500000    3.375e+08    293.62882       107143   -234.85253   0.81907956   -1003.4567     2277.862    100.49712    -620.0825   -184.97221   -312.11599    -311.7855   -265.74905     293.6416   -4310.6565    1044.7627    1121.8177    1029.7183    110.90112            0 
337600000    3.376e+08    294.24395       107143   -600.30153   0.81907956   -878.98697    2409.2059   -810.26469   -587.64849   -402.99142   -587.62282    -71.69372    570.70662    294.25753   -4293.4241    1072.5253    1168.0856    1065.0321    108.79411            0 
337700000    3.377e+08    294.84582       107143   -450.40501   0.81907956   -843.26351    2451.6553   -1015.4555    418.84458   -754.60414    422.14695   -635.66687    348.56384    294.85897   -4269.4023    1111.6324     1147.116    1052.2401    115.15027            0 
337800000    3.378e+08    296.78802       107143    61.894958   0.81907956   -859.89532    2456.7276     359.1757   -119.08722   -54.403606    -378.9713    110.41815    102.04681    296.80967   -4268.2494    1053.7114    1155.4117    1086.1638    113.06717            0 
337900000    3.379e+08    294.31879       107143   -596.00977   0.81907956   -858.94084    2430.0884   -262.21663   -179.40333   -1346.4094    185.54071   -190.45561    176.97515    294.33497   -4284.5594    1077.4286    1163.1883    1073.3186    111.68315            0 
338000000     3.38e+08    284.46902       107143    83.799795   0.81907956   -909.58478    2269.3728   -531.57024    738.74077    44.228851   -345.62681     149.2831    14.554574    284.49129   -4275.5812    1083.2913    1120.8508    1054.6464    107.20798            0 
338100000    3.381e+08     289.9756       107143    1263.3537   0.81907956   -877.97557    2362.5182    1293.2232    1449.4582    1047.3798    6.9470036    314.61131   -45.672126    289.99512   -4268.7743    1050.3727    1157.4403    1068.6065    114.37917            0 
338200000    3.382e+08    286.28379       107143   -1121.2707   0.81907956    -865.2713    2333.9664   -1802.5819   -1135.1092   -426.12114    112.73783    335.05511    722.81726    286.30025   -4262.1133    1051.8823    1153.5126    1084.5704    106.87674            0 
338300000    3.383e+08    291.51919       107143    18.785693   0.81907956   -841.39214    2416.3514   -613.00359    18.804483    650.55619   -237.07302   -0.8855993    801.96184    291.53571   -4289.9816    1132.7477    1111.8053    1088.9338    115.10259            0 
338400000    3.384e+08    285.79458       107143   -351.20279   0.81907956   -962.93906    2230.8316   -384.81419    69.601031   -738.39519    23.553246    152.59114    155.31666     285.8061   -4290.8269    1025.9336    1131.3187    1063.3334    107.30227            0 
338500000    3.385e+08    290.03409       107143   -211.56993   0.81907956   -895.33817    2345.8093   -265.62457    57.954561   -427.03979   -235.42332   -219.02706   -560.01564    290.05563   -4302.8894    1095.6245    1135.3372    1077.6123    98.977357            0 
338600000    3.386e+08    288.72807       107143   -528.10769   0.81907956   -915.56304    2310.9895    121.04662   -1323.2881   -382.08161   -162.97399    608.35224   -240.71491    288.73949   -4291.1749     1045.588    1127.0902    1092.9873    109.94626            0 
[...]
404200000    4.042e+08     288.0174       107143    297.07243   0.81907956   -860.16187    2358.4489     401.4717   -286.30532    776.05093   -237.86379   -346.47417    128.60964    288.03094   -4283.0205    1077.9631    1145.3083    1096.6914    102.89587            0 
404300000    4.043e+08    303.05317       107143    130.40442   0.81907956   -821.08244     2565.554   -203.99491    844.40997   -249.20181    96.447619    321.40951   -271.76415     303.0674   -4281.6097     1085.921    1174.2904    1094.0765    106.23933            0 
404400000    4.044e+08    298.82946       107143    200.34297   0.81907956   -955.32632    2384.1099   -119.15449    538.22723    181.95618   -375.56863     598.6781    183.81133    298.84313   -4280.2983    1026.2314     1164.566    1016.7561    117.41851            0 
404500000    4.045e+08    297.52976       107143   -714.22798   0.81907956    -900.7429     2424.169   -1238.5415   -218.13403   -686.00838   -202.96019    101.42756    664.06617    297.54261    -4298.644    1100.2117    1121.5454    1065.8003    110.34371            0 
404600000    4.046e+08    290.22254       107143   -461.88348   0.81907956   -961.94721    2281.3062   -383.91983    -567.4882    -434.2424    140.85598    210.46446   -58.310708    290.22755   -4286.4481    1033.7351    1119.8669     1062.493    108.40584            0 
404700000    4.047e+08    300.76271       107143   -551.24781   0.81907956   -1004.0354     2357.005   -402.28246   -346.77264   -904.68833     422.3823   -59.161105    361.64175     300.7669   -4277.1156    1031.1277    1084.2011    1054.6581    103.09327            0 
404800000    4.048e+08    293.56255       107143   -202.93789   0.81907956   -945.38238    2335.1958   -503.64403   -544.12653    438.95688    625.10744    757.29549   -370.58872    293.56921   -4298.5993    1068.8041    1123.1515    1057.3347    103.92661            0 
404900000    4.049e+08    291.90832       107143   -433.05124   0.81907956   -841.11962    2420.9725   -675.49342   -1059.1351    435.47476    114.61039   -658.78649   -441.03779     291.9209   -4314.9024    1112.8006    1166.6941    1081.1483    113.13971            0 
405000000     4.05e+08    294.25754       107143    873.57875   0.81907956    -830.0488    2458.2959     1029.621     1667.697   -76.581708   -51.322641    -182.8815    -361.5167    294.27436   -4310.8793     1096.912    1190.9787      1083.27    109.66974            0 
405100000    4.051e+08    286.20023       107143   -27.483742   0.81907956   -882.75434    2315.5495   -997.10495    357.77671    556.87701   -212.85693     317.0521    312.65152    286.20401   -4294.9986    1075.2053     1164.993    1067.0102    105.03569            0 
405200000    4.052e+08    298.21508       107143    -496.7917   0.81907956   -869.97549     2462.595      -618.59   -658.20933   -213.57578   -124.49922   -114.92601   -297.92394    298.21605   -4280.2739      1088.19    1133.8257    1070.1126    118.17015            0 
405300000    4.053e+08    299.33186       107143   -357.77348   0.81907956   -931.86169    2413.1889   -1009.9381    8.9500891   -72.332418   -38.313232   -360.23811    15.683328    299.34426   -4283.6771      1057.09    1134.0358    1052.1801     108.5096            0 
405400000    4.054e+08    295.86007       107143   -185.41372   0.81907956   -883.95515    2422.2979   -299.11537    332.90418   -590.02998    400.76041     319.2375    142.31677    295.86234   -4284.1361    1059.8334    1102.3421    1121.1363     116.8691            0 
405500000    4.055e+08    296.29799       107143   -436.97997   0.81907956     -856.402    2454.7449   -693.39948   -400.67443     -216.866   -393.20381   -5.1443526    40.680822    296.30643   -4275.5098    1102.0495    1120.8063    1081.5408    114.71116            0 
405600000    4.056e+08    295.44739       107143   -53.223208   0.81907956   -901.38915    2400.2522   -161.82796    503.77599   -501.61765     257.5618    134.15588   -411.48317    295.46271   -4290.9712    1064.3452    1149.0257    1056.0625    120.14869            0 
405700000    4.057e+08    300.31467       107143   -77.393208   0.81907956   -971.11394    2384.9196     -376.175   -151.86175    295.85712    128.41711    76.758446   -179.37169    300.32939   -4290.3545    1041.3955    1122.8451    1048.3196    106.68035            0 
405800000    4.058e+08    300.47176       107143    29.628944   0.81907956   -869.72773    2488.0613   -151.39894    103.03384    137.25193    783.98029    326.16173    550.70217    300.48317   -4257.4721    1099.7814    1130.3004    1041.4847    116.17781            0 
405900000    4.059e+08    296.06851       107143    505.51709   0.81907956   -807.14008    2501.4424   -123.14242    816.33736    823.35633   -244.00289   -236.07877   -203.86871     296.0777   -4271.2678    1069.3381    1197.0082    1081.3894    116.39204            0 
406000000     4.06e+08    291.31456       107143    252.88973   0.81907956   -982.01171    2273.4451    258.67904    87.883371    412.10677    3.3283854    152.40815    697.32065    291.32654    -4307.531    1085.9617    1114.2074     1015.461     109.8892            0 
406100000    4.061e+08    290.99598       107143   -506.19472   0.81907956   -791.83308    2460.0636   -989.06298   -329.11509   -200.40608    110.77197    163.05822   -690.53897    291.00891   -4283.1303    1124.9763    1181.3615    1074.5036     110.4559            0 
406200000    4.062e+08    291.75006       107143     686.3518   0.81907956   -972.40958     2287.914    484.83408     625.0138    949.20751   -610.23772   -96.525385    284.37274    291.75378   -4267.6218    1053.4071    1094.8035    1045.1294    101.87225            0 
406300000    4.063e+08    294.17381       107143   -316.75849   0.81907956   -862.21109    2425.1979   -678.57417   -10.274493   -261.42679   -31.884007   -398.34664   -210.46653     294.1799    -4276.331    1068.9952    1190.1971    1054.4296    100.49795            0 
406400000    4.064e+08    292.23356       107143    242.72327   0.81907956   -914.26787    2351.4588    150.58278     -44.6471    622.23415    407.01005    162.54962   -495.68793    292.24454   -4292.0414    1083.5097     1156.194    1028.5138    109.55607            0 
406500000    4.065e+08    292.16269       107143   -51.555234   0.81907956   -957.38182    2307.5528   -317.07266    300.72571   -138.31875    -1031.855   -516.54987    171.70044    292.17421   -4298.9613    1035.7834    1181.0697    1020.1704    104.55597            0 
406600000    4.066e+08    298.22139       107143   -557.76642   0.81907956   -931.01394     2401.627   -981.94001   -663.68442   -27.674821   -349.83923   -616.07025    179.06171    298.22085   -4260.6155    1065.7957    1117.1415    1041.8466    104.81779            0 
406700000    4.067e+08    287.43902       107143   -258.28242   0.81907956   -864.88123    2347.2661    860.58096   -592.98188   -1042.4463   -304.15478   -437.29886   -243.14363    287.45361   -4292.1584    1088.5692    1130.7421    1092.4813    115.48454            0 
406800000    4.068e+08    291.45569       107143   -250.64063   0.81907956   -829.75829    2427.2756   -383.81942    134.66507   -502.76754    -178.1552    -265.8809   -55.453438    291.46006   -4288.3264    1112.5659    1184.5848    1061.3611    100.05625            0 
406900000    4.069e+08    293.37474       107143   -142.94483   0.81907956   -933.64874    2344.8307    337.94664   -494.78305   -271.99808   -221.06847   -348.85905   -103.33779    293.38658   -4280.1406    1061.0992    1108.7677    1070.7009    105.92413            0 
407000000     4.07e+08     285.3987       107143   -585.02096   0.81907956   -921.86259    2267.4841   -345.86824   -625.05671   -784.13792    45.168067    86.190154   -441.46053    285.40425   -4285.2598    1035.5715     1167.595    1053.1823    107.04846            0 
407100000    4.071e+08     294.6649       107143    457.75135   0.81907956   -949.96015    2342.9369    125.98164    421.21139    826.06103    348.79811    105.82257    341.25824    294.67742   -4282.1361    1095.1483    1115.2775    1006.2225     115.5276            0 
407200000    4.072e+08     290.6777       107143    311.84561   0.81907956   -876.23691    2372.1029    689.55967   -303.82287    549.80003   -275.31461    133.72567    278.85567    290.69014   -4273.1779     1065.465    1178.4958    1045.5525    107.42769            0 
407300000    4.073e+08    287.14234       107143    657.24929   0.81907956   -941.47859    2267.3534   -188.08732    603.39551    1556.4397    209.09689   -211.37236    -476.6793    287.15173   -4333.1406    1065.2987    1148.8861    1064.2959    113.18132            0 
407400000    4.074e+08    295.54348       107143    300.97765   0.81907956   -876.37806    2426.3371    -362.6592    1186.8719    78.720206   -697.98439    1005.9636    451.12617    295.54984   -4280.6529    1101.9748     1108.625    1085.3515    108.32357            0 
407500000    4.075e+08    291.87218       107143   -469.12429   0.81907956   -947.99713    2313.6911   -996.57523   -832.83998    422.04233   -364.21407   -83.381832   -147.05132    291.87329   -4282.3099    1055.3113    1138.6525     1030.871    109.47803            0 
407600000    4.076e+08    291.84397       107143   -51.147679   0.81907956   -936.65238    2324.7206      73.1039    113.52096   -340.06789     162.5001    655.27402    518.81186    291.85457   -4258.2572    1092.0127    1088.4696    1046.8334    94.289051            0 
407700000    4.077e+08    291.30406       107143    198.74477   0.81907956   -909.31036     2346.029   -194.90889     444.6995     346.4437   -357.90949    -93.72831    459.80727    291.31729   -4293.2061    1014.0754    1159.8375    1101.1062    108.87666            0 
407800000    4.078e+08    292.60007       107143    458.46164   0.81907956   -932.83383    2336.9885    1267.8764   -23.021736    130.53029    139.10872   -145.64288   -47.625105    292.60795   -4279.0807    1045.5119    1138.3649    1043.8734    118.49671            0 
407900000    4.079e+08    298.36884       107143    34.453915   0.81907956    -834.0987      2500.19   -468.34649    339.58686    232.12138    342.87656   -715.41909   -290.19794    298.36706   -4263.3966      1046.93    1198.3416      1072.32    111.70627            0 
408000000     4.08e+08    295.94917       107143   -547.04264   0.81907956   -957.27124    2349.9775    -345.3291   -1011.8751   -283.92367   -304.28563    285.86762   -353.76026    295.95973   -4283.2946    1040.4606    1103.3776    1059.1158    123.06944            0 
408100000    4.081e+08    287.78559       107143    81.590637   0.81907956   -912.78779    2303.2325   -118.74954    931.89762   -568.37617   -401.10626    416.48513     561.4861    287.79352   -4288.4298    1058.0993    1126.5749    1084.0139    106.95393            0 
408200000    4.082e+08    297.11939       107143   -281.42364   0.81907956   -899.82352    2420.5026    109.45676   -531.66031   -422.06737    156.25029    113.88857    19.147489    297.13979   -4299.2775    1065.8147    1140.5492    1078.7557    114.33439            0 
408300000    4.083e+08    296.70301       107143   -374.51605   0.81907956   -853.50246    2462.1706   -1185.2016    140.99638    -79.34294   -506.36195   -206.83239   -51.018204    296.70972   -4254.7514    1078.2055    1166.2522    1042.8839    113.90727            0 
408400000    4.084e+08    291.66423       107143   -879.23966   0.81907956   -913.51113    2345.8532   -1036.3404   -714.72035   -886.65826    141.28917    270.70554   -549.61144    291.66529   -4298.6698    1040.4992    1142.5426    1081.4669    120.65002            0 
408500000    4.085e+08    293.67974       107143   -117.14391   0.81907956   -826.18009    2455.7077   -714.20511   -263.92226    626.69565   -589.40155    365.82333    422.73016    293.68964   -4309.4851    1121.2874    1179.4488    1077.9605    104.60843            0 
408600000    4.086e+08    283.57797       107143    361.03663   0.81907956   -868.56007    2300.4399    190.76213    855.96821    36.379562   -230.44129    600.82586    124.47394    283.58477    -4274.062    1040.3817    1176.3444    1076.4412    112.33462            0 
408700000    4.087e+08    292.98521       107143   -424.64044   0.81907956   -859.67303    2414.4533   -587.85445   -856.01883    169.95196    -495.4295      400.254    17.753207    292.99325   -4270.9656    1060.8411    1158.1667    1073.7834    118.50137            0 
408800000    4.088e+08    292.57589       107143   -334.78765   0.81907956   -918.75149    2350.8007   -599.96304    -359.2163   -45.183595    406.63865      324.251   -4.6686735    292.59396   -4285.7622    1014.8645    1127.9391    1120.0566     104.1506            0 
408900000    4.089e+08    287.93181       107143   -488.07446   0.81907956   -889.05933     2328.595   -1761.0589   -161.53563    458.37114   -49.913542   -230.62471   -384.43587     287.9414   -4281.4284     1006.462    1160.7634    1110.8067    114.33703            0 
409000000     4.09e+08    301.70619       107143    155.64482   0.81907956   -913.60915    2457.9747   -23.492649    476.68796    13.739144     472.3461   -185.30204    902.50313    301.71981   -4281.7998     1079.086    1118.7494    1054.0699    116.28549            0 
409100000    4.091e+08     291.6337       107143    628.11604   0.81907956   -858.95531    2400.0678     1247.287    478.93127    158.12987   -190.49174   -89.337441    472.73548    291.64348   -4270.6191    1104.1179    1120.3122    1073.4875    113.74629            0 
409200000    4.092e+08    297.39082       107143      1218.51   0.81907956   -931.01157    2392.3478    1491.0504    1012.4457    1152.0339    -107.0645    294.87262   -31.409899    297.40403   -4310.84Generated thermo.dat
Done!
stress
average  86.1423
square average  7541.06
number of blocks  310
variance  .62363179456595090048
pxx
average  -36.2322
square average  1716.41
number of blocks  310
variance  1.14107714132376383487
pyy
average  18.2099
square average  630.93
number of blocks  310
variance  .98263887960413891784
pzz
average  1.15377
square average  325.392
number of blocks  310
variance  1.02242724291519212742
xx
average  2187.1
square average  4.7834*10^06
number of blocks  310
variance  .14379645112045953990
yy
average  2180.84
square average  4.75607*10^06
number of blocks  310
variance  .14913081505845798870
zz
average  2180.65
square average  4.75523*10^06
number of blocks  310
variance  .11944090183960461251
xx
average  -1435.91
square average  2.06225*10^06
number of blocks  310
variance  1.15349664764533765768
yy
average  -1377.47
square average  1.89771*10^06
number of blocks  310
variance  .96118055770813895101
zz
average  -1394.4
square average  1.94466*10^06
number of blocks  310
variance  .99780404049382684969
rm: cannot remove `running.average.out': No such file or directory
stress
average  87.1615
square average  9455.08
number of blocks  1000
variance  1.36306746632365927069
average  86.7606
square average  9565.68
number of blocks  3000
variance  .82427307118454379359
average  85.9748
square average  9427.1
number of blocks  5000
variance  .63803350459987600873
average  86.3283
square average  9460.97
number of blocks  7000
variance  .53564308734054832914
average  86.367
square average  9434.31
number of blocks  9000
variance  .46845506259049721861
average  85.9351
square average  9387.92
number of blocks  11000
variance  .42672948509991240542
average  86.267
square average  9445.74
number of blocks  13000
variance  .39259929767953169182
average  85.8293
square average  9385.08
number of blocks  15000
variance  .36682523191205554437
average  86.3945
square average  9478.32
number of blocks  17000
variance  .34422208714638252378
average  86.6126
square average  9533.5
number of blocks  19000
variance  .32700857233573041543
average  86.3963
square average  9497.39
number of blocks  21000
variance  .31114759522574154833
average  86.4268
square average  9492.34
number of blocks  23000
variance  .29655619320576606728
average  86.4789
square average  9489.94
number of blocks  25000
variance  .28364342790130005055
average  86.3655
square average  9468.83
number of blocks  27000
variance  .27283358173816153980
average  86.0581
square average  9412.06
number of blocks  29000
variance  .26301064777121568609
average  86.136
square average  9416.65
number of blocks  30100
variance  .25759167667781447095
average  86.1435
square average  9408.58
number of blocks  30300
variance  .25613768779166553191
average  86.1339
square average  9398.99
number of blocks  30500
variance  .25478639531775709283
average  86.1214
square average  9387.83
number of blocks  30700
variance  .25337683321571341471
average  86.1569
square average  9385.69
number of blocks  30900
variance  .25202600307550328690
pressure, stress.strain, ktensor, virial are all concatenated
averages computed will all accumulated data until now
81    1066.6487    1163.4076    1035.8691    113.91121            0 
409300000    4.093e+08    290.82305       107143    165.03854   0.81907956   -991.60227    2258.3618   -194.62203    743.31749   -53.579851    408.97049   -393.77177    265.42458    290.82765   -4274.6517    1055.7003    1091.8376    1029.4949    106.01663            0 
409400000    4.094e+08     292.0158       107143    1029.9961   0.81907956   -929.15967    2334.1335    1422.4819    778.60762    888.89874   -194.11174    79.317793   -384.69896    292.02059   -4279.8928    1054.1789    1149.0401    1034.7728    112.74136            0 
409500000    4.095e+08    289.83309       107143   -291.70314   0.81907956   -974.49843    2264.4029   -73.627422   -447.42851    -354.0535   -340.54313   -534.59995   -163.35507    289.83935   -4310.9079    1039.2921    1117.4996    1062.2265    117.39127            0 
409600000    4.096e+08     294.9804       107143   -763.16712   0.81907956   -930.49122    2365.9315   -860.32817   -929.51345   -499.65975   -324.29682   -710.78215   -46.365713    294.98409   -4303.1901    1062.5925    1138.5273    1062.0867     109.4924            0 
409700000    4.097e+08    288.61175       107143    46.134867   0.81907956    -917.1272    2308.1255    16.759105    100.73269    20.912801   -414.88912   -293.53771     614.2868    288.61956    -4263.996    1026.6174    1163.7317     1045.707    110.81273            0 
409800000    4.098e+08    290.74242       107143    44.989042   0.81907956   -876.01746    2373.0456    385.62442   -578.35878    327.70149   -1219.3701    396.87157   -150.51794    290.76008   -4285.5574    1038.3986    1196.2025    1062.1093    112.82951            0 
409900000    4.099e+08    286.51896       107143   -27.735709   0.81907956   -895.54914    2306.3165     171.1446   -146.83239   -107.51933    142.69738   -661.19629   -732.55626    286.53576   -4313.8838    1063.7491    1154.2599    1081.0014    119.32422            0 
410000000      4.1e+08    293.82223       107143   -190.45466   0.81907956    -1002.573     2280.907    213.12577    282.85454   -1067.3443    198.88824   -157.00684    751.84005    293.82533   -4303.6235    1038.0656    1123.0585    1023.3028    116.62352            0 
Loop time of 5754.79 on 48 procs for 20000000 steps with 3750 atoms

Pair  time (%) = 1867.3 (32.4477)
Bond  time (%) = 408.467 (7.09786)
Neigh time (%) = 1024.77 (17.8073)
Comm  time (%) = 1732.81 (30.1107)
Outpt time (%) = 34.576 (0.600822)
Other time (%) = 686.87 (11.9356)

Nlocal:    78.125 ave 88 max 64 min
Histogram: 1 0 2 8 5 9 5 10 5 3
Nghost:    1263.21 ave 1307 max 1232 min
Histogram: 4 2 4 15 10 4 4 3 1 1
Neighs:    5961.33 ave 7048 max 4870 min
Histogram: 2 1 5 7 13 3 6 6 4 1

Total # of neighbors = 286144
Ave neighs/atom = 76.3051
Ave special neighs/atom = 6.26667
Neighbor list builds = 2231578
Dangerous builds = 0
System init for write_restart ...

real	489m9.103s
user	0m0.044s
sys	0m0.050s
