ITEM: TIMESTEP
18000000
ITEM: NUMBER OF ATOMS
30
ITEM: BOX BOUNDS xy xz yz pp pp pp
111.685 158.315 0
111.685 158.315 0
111.685 158.315 0
ITEM: ATOMS id type xs ys zs
585 1 0.64295 0.0368544 0.239565
586 1 0.642811 0.0539058 0.210803
587 1 0.652978 0.0846659 0.214825
584 1 0.621024 0.0114047 0.239873
594 3 0.650581 0.153858 0.344511
596 1 0.62682 0.0864523 0.352392
600 2 0.561239 0.0443797 0.325034
598 4 0.57637 0.0656956 0.345505
599 3 0.555497 0.0875421 0.358052
597 1 0.603013 0.0780639 0.330581
593 4 0.651805 0.12855 0.324382
595 1 0.655275 0.100089 0.338405
574 1 0.657104 0.797816 0.272784
583 3 0.627882 0.998751 0.292719
579 1 0.629047 0.904894 0.258216
582 4 0.629524 0.988737 0.261725
578 3 0.659731 0.892452 0.299097
580 1 0.64042 0.935325 0.26275
577 4 0.650099 0.882794 0.270431
581 1 0.618412 0.958632 0.255753
576 1 0.639128 0.850885 0.269051
575 1 0.658705 0.829539 0.28352
588 4 0.682571 0.0844395 0.227585
589 3 0.708632 0.0807992 0.208805
590 1 0.685906 0.111049 0.247011
591 1 0.670784 0.107106 0.276415
592 1 0.672375 0.132345 0.297416
572 4 0.680174 0.778995 0.28588
571 2 0.710601 0.785156 0.273695
573 3 0.678579 0.781625 0.318688
ITEM: TIMESTEP
18100000
ITEM: NUMBER OF ATOMS
30
ITEM: BOX BOUNDS xy xz yz pp pp pp
111.662 158.338 0
111.662 158.338 0
111.662 158.338 0
ITEM: ATOMS id type xs ys zs
574 1 0.411599 0.652909 0.583742
578 3 0.441976 0.743113 0.575153
571 2 0.427645 0.619343 0.543502
573 3 0.460861 0.632058 0.585338
575 1 0.419812 0.679991 0.566541
572 4 0.43061 0.627876 0.575605
576 1 0.400795 0.705796 0.57598
577 4 0.410406 0.736435 0.566174
586 1 0.363192 0.870768 0.475598
589 3 0.418307 0.902729 0.435992
590 1 0.408231 0.93813 0.478463
587 1 0.371635 0.899338 0.464219
588 4 0.403186 0.909075 0.464656
595 1 0.41613 0.942986 0.565413
599 3 0.370231 0.902928 0.639198
598 4 0.402552 0.909434 0.641095
580 1 0.39689 0.793055 0.564704
596 1 0.406521 0.938603 0.596008
579 1 0.392178 0.76214 0.575942
592 1 0.410346 0.970772 0.521542
581 1 0.373277 0.812981 0.573932
585 1 0.370443 0.86919 0.507632
583 3 0.354159 0.864617 0.569591
597 1 0.416534 0.91129 0.610946
600 2 0.417291 0.887382 0.659037
593 4 0.404617 0.970245 0.55378
582 4 0.372744 0.84194 0.556672
584 1 0.365808 0.840962 0.523756
591 1 0.399955 0.942171 0.510773
594 3 0.416724 0.996276 0.568832
ITEM: TIMESTEP
18200000
ITEM: NUMBER OF ATOMS
30
ITEM: BOX BOUNDS xy xz yz pp pp pp
111.683 158.317 0
111.683 158.317 0
111.683 158.317 0
ITEM: ATOMS id type xs ys zs
573 3 0.137224 0.478156 0.817529
571 2 0.130966 0.459752 0.868197
572 4 0.154568 0.469178 0.845521
574 1 0.177161 0.489306 0.858611
589 3 0.143056 0.68145 0.725729
581 1 0.120962 0.631672 0.880276
590 1 0.13492 0.732192 0.751318
576 1 0.186934 0.541545 0.87901
575 1 0.166272 0.520371 0.863445
578 3 0.206504 0.592485 0.879797
600 2 0.156123 0.732043 0.948047
580 1 0.144396 0.613765 0.866014
584 1 0.0996249 0.64545 0.82927
582 4 0.111637 0.655548 0.859672
597 1 0.163188 0.749002 0.89595
583 3 0.0937687 0.680931 0.873035
579 1 0.152435 0.585511 0.881642
587 1 0.0967504 0.690411 0.757866
586 1 0.0948151 0.662353 0.775672
577 4 0.180628 0.57327 0.871574
585 1 0.102187 0.669228 0.807207
591 1 0.133828 0.741928 0.783163
588 4 0.127619 0.699726 0.749538
599 3 0.115243 0.759175 0.924878
592 1 0.149147 0.771581 0.789336
596 1 0.153798 0.772231 0.873716
593 4 0.147942 0.784927 0.820456
594 3 0.156489 0.815887 0.821668
595 1 0.160665 0.763549 0.842543
598 4 0.148416 0.753158 0.925375
ITEM: TIMESTEP
18300000
ITEM: NUMBER OF ATOMS
30
ITEM: BOX BOUNDS xy xz yz pp pp pp
111.644 158.356 0
111.644 158.356 0
111.644 158.356 0
ITEM: ATOMS id type xs ys zs
575 1 0.884243 0.33092 0.106394
573 3 0.842754 0.28482 0.0838494
579 1 0.879471 0.386215 0.131564
571 2 0.852432 0.272679 0.133701
581 1 0.863948 0.426353 0.0983549
574 1 0.890538 0.299489 0.104935
583 3 0.838401 0.470088 0.122144
572 4 0.866422 0.27701 0.105809
577 4 0.906989 0.378971 0.112751
578 3 0.935009 0.396033 0.119315
584 1 0.843652 0.466276 0.0646579
576 1 0.912676 0.346914 0.113297
580 1 0.870652 0.417241 0.129824
582 4 0.855593 0.458033 0.0951584
585 1 0.846934 0.498531 0.0581076
588 4 0.880344 0.551845 0.0214018
595 1 0.869063 0.588582 0.126432
592 1 0.87991 0.614145 0.0793655
599 3 0.812272 0.554241 0.195787
593 4 0.866249 0.616392 0.109085
591 1 0.871351 0.585624 0.0644682
598 4 0.844197 0.54856 0.195643
594 3 0.877021 0.640112 0.128981
597 1 0.858037 0.554434 0.166834
590 1 0.88274 0.582727 0.0331938
600 2 0.853476 0.520721 0.211067
596 1 0.856621 0.585787 0.15674
586 1 0.843549 0.508788 0.0281436
587 1 0.849539 0.541222 0.0249987
589 3 0.894509 0.545081 0.992446
ITEM: TIMESTEP
18400000
ITEM: NUMBER OF ATOMS
30
ITEM: BOX BOUNDS xy xz yz pp pp pp
111.692 158.308 0
111.692 158.308 0
111.692 158.308 0
ITEM: ATOMS id type xs ys zs
573 3 0.610553 0.12118 0.433218
571 2 0.59569 0.148144 0.386119
572 4 0.609135 0.150644 0.416801
577 4 0.657005 0.246971 0.402547
575 1 0.636527 0.197014 0.405686
574 1 0.637599 0.166633 0.418978
576 1 0.661735 0.215895 0.413063
596 1 0.629454 0.437129 0.425128
586 1 0.583031 0.372908 0.305884
588 4 0.625639 0.40369 0.29333
587 1 0.5932 0.40408 0.299799
581 1 0.607425 0.292297 0.384066
595 1 0.650222 0.447522 0.402184
585 1 0.594075 0.362852 0.335578
600 2 0.63238 0.365418 0.473132
592 1 0.64077 0.463017 0.34825
590 1 0.641668 0.430062 0.306388
579 1 0.634803 0.261534 0.42145
582 4 0.598671 0.324053 0.376038
598 4 0.621318 0.393685 0.460264
599 3 0.589515 0.392767 0.451306
591 1 0.63221 0.433357 0.337752
593 4 0.633391 0.465539 0.380283
589 3 0.634781 0.39773 0.262105
583 3 0.578539 0.337797 0.396917
580 1 0.627026 0.292106 0.410443
597 1 0.64065 0.409671 0.43902
584 1 0.588859 0.331743 0.34525
594 3 0.630968 0.495149 0.393504
578 3 0.685374 0.264096 0.401595
ITEM: TIMESTEP
18500000
ITEM: NUMBER OF ATOMS
30
ITEM: BOX BOUNDS xy xz yz pp pp pp
111.687 158.313 0
111.687 158.313 0
111.687 158.313 0
ITEM: ATOMS id type xs ys zs
586 1 0.329688 0.199955 0.541771
587 1 0.332619 0.233711 0.540032
571 2 0.31947 0.986123 0.647829
573 3 0.331049 0.963491 0.692958
572 4 0.328971 0.993431 0.678392
589 3 0.355603 0.236142 0.492332
577 4 0.400084 0.0563171 0.650448
582 4 0.364307 0.143173 0.592044
588 4 0.360499 0.24083 0.524445
574 1 0.353374 0.0158432 0.679388
598 4 0.394028 0.209177 0.694742
581 1 0.366704 0.110052 0.593147
597 1 0.396551 0.217609 0.662289
599 3 0.365753 0.220782 0.709084
600 2 0.398575 0.176166 0.700302
579 1 0.387092 0.0656536 0.621069
584 1 0.344566 0.156589 0.569069
580 1 0.383683 0.0977489 0.618318
575 1 0.34959 0.045145 0.666764
578 3 0.428737 0.0698669 0.658648
576 1 0.375706 0.0644425 0.672314
583 3 0.36025 0.15865 0.62092
585 1 0.352939 0.185536 0.559846
593 4 0.393639 0.286299 0.615862
591 1 0.378327 0.26873 0.566465
590 1 0.370496 0.269652 0.534707
594 3 0.413131 0.305529 0.634003
592 1 0.392023 0.292822 0.583701
595 1 0.39933 0.256186 0.62412
596 1 0.393214 0.249551 0.656351
ITEM: TIMESTEP
18600000
ITEM: NUMBER OF ATOMS
30
ITEM: BOX BOUNDS xy xz yz pp pp pp
111.629 158.371 0
111.629 158.371 0
111.629 158.371 0
ITEM: ATOMS id type xs ys zs
600 2 0.117687 0.0321643 0.0144984
599 3 0.0718269 0.0652878 0.00516973
598 4 0.103978 0.0602681 0.00211844
588 4 0.0779241 0.0698957 0.82683
589 3 0.078491 0.0653848 0.794129
586 1 0.0424237 0.0270539 0.835716
594 3 0.118234 0.152931 0.930316
584 1 0.0320816 0.000631611 0.882628
583 3 0.0197291 0.0409999 0.917549
593 4 0.104709 0.126576 0.915509
582 4 0.0425993 0.0218176 0.905141
595 1 0.113682 0.0978227 0.927639
587 1 0.0493157 0.0594272 0.841159
597 1 0.115492 0.0658385 0.97205
596 1 0.104375 0.0932297 0.958643
585 1 0.0197301 0.0149527 0.855574
591 1 0.0897291 0.10005 0.867836
592 1 0.103916 0.12704 0.882718
590 1 0.0879983 0.099507 0.835032
581 1 0.0598087 0.00792495 0.929723
578 3 0.1486 0.987368 0.934982
571 2 0.0824288 0.853165 0.924207
575 1 0.114184 0.908878 0.941206
573 3 0.0975961 0.833543 0.97097
577 4 0.127766 0.961905 0.93025
579 1 0.0953561 0.967888 0.935805
576 1 0.136361 0.93297 0.942889
572 4 0.0952094 0.860781 0.953621
574 1 0.121475 0.881039 0.955298
580 1 0.0878174 0.993946 0.918132
ITEM: TIMESTEP
18700000
ITEM: NUMBER OF ATOMS
30
ITEM: BOX BOUNDS xy xz yz pp pp pp
111.709 158.291 0
111.709 158.291 0
111.709 158.291 0
ITEM: ATOMS id type xs ys zs
571 2 0.811472 0.648245 0.204779
576 1 0.867487 0.726345 0.226051
575 1 0.842765 0.704272 0.225171
574 1 0.849371 0.673819 0.237752
572 4 0.822593 0.653461 0.236261
573 3 0.828048 0.62632 0.252168
580 1 0.828867 0.784169 0.175159
583 3 0.794006 0.836224 0.163251
593 4 0.838886 0.959049 0.165791
594 3 0.853312 0.984108 0.182433
582 4 0.800646 0.812796 0.140691
590 1 0.831743 0.933946 0.0844823
577 4 0.861785 0.756413 0.212521
578 3 0.854769 0.780625 0.233747
589 3 0.837928 0.898367 0.0427287
587 1 0.80063 0.88917 0.0846127
588 4 0.828926 0.901573 0.0743573
596 1 0.834391 0.926719 0.212201
592 1 0.844311 0.960956 0.132873
584 1 0.778026 0.813673 0.115546
591 1 0.82959 0.935597 0.117852
585 1 0.772129 0.844217 0.103976
595 1 0.844755 0.929195 0.178919
581 1 0.805938 0.782851 0.15137
597 1 0.833122 0.894846 0.221709
598 4 0.807695 0.886574 0.241846
586 1 0.801135 0.8569 0.0934176
579 1 0.835897 0.754363 0.190587
599 3 0.805704 0.854341 0.249049
600 2 0.803442 0.906283 0.268621
ITEM: TIMESTEP
18800000
ITEM: NUMBER OF ATOMS
30
ITEM: BOX BOUNDS xy xz yz pp pp pp
111.721 158.279 0
111.721 158.279 0
111.721 158.279 0
ITEM: ATOMS id type xs ys zs
573 3 0.550181 0.480288 0.490543
572 4 0.559926 0.495969 0.517853
578 3 0.604156 0.625312 0.496025
583 3 0.486667 0.679172 0.446809
586 1 0.561204 0.713236 0.408872
580 1 0.555279 0.633341 0.459506
582 4 0.517756 0.668848 0.442941
584 1 0.526602 0.669264 0.411922
587 1 0.568739 0.739967 0.390588
579 1 0.557583 0.606675 0.479308
581 1 0.522994 0.640013 0.458335
585 1 0.531234 0.700041 0.401508
577 4 0.588382 0.598454 0.485301
575 1 0.572519 0.548583 0.500017
574 1 0.583143 0.519258 0.512017
600 2 0.552504 0.693679 0.548101
576 1 0.593132 0.572877 0.506052
597 1 0.542919 0.736791 0.515056
599 3 0.503375 0.698509 0.523347
598 4 0.52945 0.714703 0.5362
571 2 0.535855 0.506623 0.536597
591 1 0.594189 0.797409 0.444604
590 1 0.574061 0.778469 0.427137
588 4 0.590263 0.760569 0.405103
589 3 0.607089 0.780523 0.385029
593 4 0.559745 0.801623 0.489184
592 1 0.577865 0.81719 0.466263
596 1 0.560316 0.761189 0.529234
594 3 0.545648 0.823422 0.508521
595 1 0.576717 0.779684 0.506705
ITEM: TIMESTEP
18900000
ITEM: NUMBER OF ATOMS
30
ITEM: BOX BOUNDS xy xz yz pp pp pp
111.694 158.306 0
111.694 158.306 0
111.694 158.306 0
ITEM: ATOMS id type xs ys zs
581 1 0.25374 0.463603 0.733831
582 4 0.254027 0.491085 0.713342
573 3 0.274057 0.330536 0.746476
584 1 0.265416 0.485399 0.682942
580 1 0.28179 0.447204 0.737818
574 1 0.316087 0.352998 0.774021
579 1 0.282537 0.431265 0.767845
577 4 0.313725 0.422588 0.775486
575 1 0.299985 0.372978 0.794429
576 1 0.316652 0.401472 0.800085
571 2 0.287642 0.309493 0.79429
572 4 0.297731 0.32559 0.767201
586 1 0.289787 0.535001 0.673552
585 1 0.268264 0.512209 0.663753
583 3 0.225529 0.508642 0.715334
589 3 0.302709 0.619181 0.659456
590 1 0.306075 0.592405 0.707502
587 1 0.282019 0.565329 0.663802
588 4 0.30242 0.589499 0.675093
598 4 0.290731 0.521699 0.817144
599 3 0.259144 0.514798 0.806731
594 3 0.326703 0.604853 0.80116
593 4 0.331006 0.589119 0.772322
600 2 0.305787 0.505511 0.841961
597 1 0.310457 0.528913 0.792093
578 3 0.335474 0.446563 0.779311
591 1 0.336106 0.600409 0.716205
592 1 0.339074 0.609871 0.748503
595 1 0.35125 0.561652 0.774156
596 1 0.339662 0.542067 0.798017
ITEM: TIMESTEP
19000000
ITEM: NUMBER OF ATOMS
30
ITEM: BOX BOUNDS xy xz yz pp pp pp
111.748 158.252 0
111.748 158.252 0
111.748 158.252 0
ITEM: ATOMS id type xs ys zs
577 4 0.0284936 0.237847 0.0412591
574 1 0.0135817 0.167545 0.0436667
572 4 0.0042659 0.137343 0.0515757
575 1 0.00742291 0.191872 0.0655799
576 1 0.0304351 0.216075 0.0671528
573 3 0.00994741 0.114076 0.0284485
597 1 0.024586 0.329799 0.0934727
593 4 0.0325625 0.408113 0.0668714
578 3 0.0496513 0.26216 0.0416428
594 3 0.033062 0.425399 0.0952978
591 1 0.0468393 0.403478 0.0154798
595 1 0.040306 0.376552 0.0723987
600 2 0.0102371 0.286815 0.120664
596 1 0.0193091 0.361772 0.0921822
592 1 0.0514458 0.421455 0.0425905
586 1 0.0290602 0.357098 0.937339
589 3 0.0731181 0.407111 0.934406
590 1 0.0594814 0.416418 0.988808
587 1 0.029119 0.383554 0.957484
588 4 0.0602162 0.394948 0.962935
584 1 0.000604286 0.322742 0.971199
585 1 0.000544091 0.340255 0.941802
571 2 0.971411 0.134642 0.0622034
599 3 0.973891 0.306093 0.0825437
598 4 0.998611 0.312553 0.1048
580 1 0.998795 0.265396 0.00753674
579 1 0.997043 0.250359 0.0364891
581 1 0.972725 0.281927 0.996418
583 3 0.984854 0.277006 0.94354
582 4 0.979884 0.297856 0.968765
ITEM: TIMESTEP
19100000
ITEM: NUMBER OF ATOMS
30
ITEM: BOX BOUNDS xy xz yz pp pp pp
111.736 158.264 0
111.736 158.264 0
111.736 158.264 0
ITEM: ATOMS id type xs ys zs
582 4 0.708812 0.115643 0.242702
588 4 0.791401 0.213219 0.215206
583 3 0.709022 0.0965842 0.217297
584 1 0.729748 0.141266 0.238677
585 1 0.729807 0.153769 0.208026
587 1 0.763003 0.197472 0.222123
586 1 0.755824 0.171254 0.201066
589 3 0.793949 0.226595 0.185337
590 1 0.796023 0.235189 0.238717
599 3 0.72172 0.146857 0.361605
596 1 0.770665 0.187449 0.355921
595 1 0.787248 0.201823 0.331251
598 4 0.751207 0.138425 0.374013
578 3 0.796924 0.06555 0.307305
581 1 0.71227 0.0989053 0.271757
600 2 0.753323 0.105593 0.376618
592 1 0.791916 0.241302 0.294607
591 1 0.793932 0.219767 0.269689
597 1 0.776755 0.155542 0.358513
576 1 0.764828 0.024142 0.332407
580 1 0.741737 0.0862086 0.279559
577 4 0.769502 0.0479695 0.308221
593 4 0.777048 0.230142 0.321683
579 1 0.740962 0.0644507 0.304178
594 3 0.772024 0.251528 0.345574
573 3 0.704947 0.931474 0.349592
571 2 0.716321 0.946897 0.297172
574 1 0.737535 0.973813 0.339647
572 4 0.712286 0.955871 0.328133
575 1 0.746375 0.998736 0.320452
ITEM: TIMESTEP
19200000
ITEM: NUMBER OF ATOMS
30
ITEM: BOX BOUNDS xy xz yz pp pp pp
111.744 158.256 0
111.744 158.256 0
111.744 158.256 0
ITEM: ATOMS id type xs ys zs
586 1 0.512968 0.00526919 0.453763
587 1 0.512211 0.0297226 0.477571
589 3 0.556064 0.0558805 0.458889
588 4 0.542394 0.0413017 0.485809
594 3 0.495359 0.0705587 0.613044
593 4 0.499576 0.0515223 0.586391
591 1 0.523926 0.0447789 0.538387
595 1 0.506995 0.0208134 0.593693
592 1 0.521621 0.0637142 0.56583
596 1 0.483077 0.00448269 0.610377
590 1 0.5372 0.0591314 0.512416
585 1 0.484997 0.986801 0.454895
583 3 0.444133 0.93612 0.457317
582 4 0.452433 0.954945 0.484383
584 1 0.48202 0.969942 0.483372
576 1 0.498375 0.859729 0.577193
577 4 0.499785 0.886926 0.558022
600 2 0.48559 0.93971 0.670543
571 2 0.484493 0.763468 0.547079
597 1 0.492909 0.974609 0.624777
580 1 0.472972 0.917702 0.520368
572 4 0.471702 0.778822 0.573419
573 3 0.465505 0.757405 0.598553
579 1 0.470858 0.898935 0.547743
598 4 0.472349 0.962111 0.648965
599 3 0.441951 0.957383 0.636509
581 1 0.449646 0.941063 0.51358
574 1 0.487338 0.806046 0.584281
578 3 0.516876 0.911647 0.57125
575 1 0.483268 0.832698 0.566537
ITEM: TIMESTEP
19300000
ITEM: NUMBER OF ATOMS
30
ITEM: BOX BOUNDS xy xz yz pp pp pp
111.712 158.288 0
111.712 158.288 0
111.712 158.288 0
ITEM: ATOMS id type xs ys zs
583 3 0.22727 0.714714 0.713121
582 4 0.212899 0.726982 0.739664
581 1 0.216383 0.706959 0.76658
577 4 0.241122 0.707148 0.834545
576 1 0.249864 0.686585 0.859097
574 1 0.257316 0.636185 0.835528
580 1 0.204574 0.720347 0.795154
579 1 0.209955 0.703444 0.822719
572 4 0.252257 0.602862 0.839279
578 3 0.248033 0.738332 0.841951
571 2 0.220562 0.597887 0.841379
575 1 0.243094 0.654095 0.859446
573 3 0.269292 0.584686 0.817039
585 1 0.233009 0.775125 0.718737
589 3 0.266671 0.862829 0.72904
586 1 0.249455 0.802442 0.726637
587 1 0.234047 0.822549 0.747627
584 1 0.226675 0.75762 0.745194
595 1 0.238265 0.84802 0.865953
591 1 0.227365 0.859478 0.802966
593 4 0.218366 0.871197 0.854891
598 4 0.212583 0.782285 0.910851
597 1 0.234588 0.799181 0.893833
594 3 0.212964 0.894869 0.876754
600 2 0.217021 0.751361 0.9214
596 1 0.223146 0.830368 0.889462
590 1 0.237742 0.872164 0.77493
592 1 0.226288 0.883027 0.825336
599 3 0.183036 0.787016 0.897212
588 4 0.252231 0.848551 0.755757
ITEM: TIMESTEP
19400000
ITEM: NUMBER OF ATOMS
30
ITEM: BOX BOUNDS xy xz yz pp pp pp
111.753 158.247 0
111.753 158.247 0
111.753 158.247 0
ITEM: ATOMS id type xs ys zs
573 3 0.923472 0.425124 0.145458
575 1 0.951185 0.496693 0.107352
571 2 0.934695 0.430557 0.0925901
574 1 0.951506 0.470885 0.128861
572 4 0.929468 0.446585 0.12093
580 1 0.924754 0.578314 0.0672391
587 1 0.965452 0.677309 0.022711
600 2 0.960352 0.608391 0.213679
576 1 0.962777 0.524359 0.119012
590 1 0.974907 0.723415 0.0550861
594 3 0.959776 0.7488 0.158447
597 1 0.968488 0.650636 0.177845
599 3 0.922234 0.644762 0.204555
598 4 0.955215 0.639448 0.20581
581 1 0.935943 0.564871 0.0396181
593 4 0.963036 0.723971 0.135701
582 4 0.941066 0.583388 0.0132299
586 1 0.980377 0.656485 0.00177712
578 3 0.976338 0.578036 0.111007
589 3 0.992802 0.72106 0.00240779
588 4 0.983066 0.703164 0.0290039
577 4 0.960688 0.551306 0.0995721
579 1 0.929756 0.558372 0.0923732
584 1 0.959745 0.609783 0.0207019
595 1 0.979249 0.696528 0.146468
596 1 0.966471 0.683737 0.173989
592 1 0.972484 0.733827 0.1065
591 1 0.970005 0.708848 0.0839165
583 3 0.95106 0.564835 0.988056
585 1 0.963007 0.629846 0.995115
ITEM: TIMESTEP
19500000
ITEM: NUMBER OF ATOMS
30
ITEM: BOX BOUNDS xy xz yz pp pp pp
111.719 158.281 0
111.719 158.281 0
111.719 158.281 0
ITEM: ATOMS id type xs ys zs
582 4 0.665017 0.435881 0.293428
580 1 0.654784 0.40492 0.336694
583 3 0.634419 0.43561 0.281196
599 3 0.638456 0.460667 0.48237
594 3 0.660339 0.565555 0.42833
581 1 0.673862 0.407154 0.309011
584 1 0.687317 0.449665 0.273642
577 4 0.697641 0.392519 0.368362
571 2 0.750528 0.260589 0.401648
578 3 0.699192 0.421318 0.384812
575 1 0.714422 0.336799 0.376495
574 1 0.735927 0.316124 0.391694
573 3 0.70814 0.274042 0.365916
586 1 0.7117 0.48477 0.30778
576 1 0.712892 0.368339 0.386107
572 4 0.735905 0.28378 0.38223
598 4 0.667932 0.47536 0.487369
587 1 0.737666 0.489026 0.327896
585 1 0.71497 0.459173 0.288858
597 1 0.676238 0.494285 0.461108
600 2 0.693652 0.456793 0.495501
579 1 0.666731 0.383865 0.35905
595 1 0.704049 0.536125 0.441228
592 1 0.699105 0.556869 0.390665
596 1 0.695634 0.520237 0.469444
589 3 0.757591 0.527796 0.298395
593 4 0.683693 0.544777 0.416775
591 1 0.717691 0.532795 0.375112
590 1 0.729291 0.539124 0.345601
588 4 0.750447 0.518828 0.32848
ITEM: TIMESTEP
19600000
ITEM: NUMBER OF ATOMS
30
ITEM: BOX BOUNDS xy xz yz pp pp pp
111.702 158.298 0
111.702 158.298 0
111.702 158.298 0
ITEM: ATOMS id type xs ys zs
574 1 0.443713 0.141634 0.678232
581 1 0.381264 0.23849 0.584046
573 3 0.446567 0.118933 0.627216
571 2 0.455673 0.0862097 0.668629
577 4 0.40702 0.215761 0.660488
575 1 0.434866 0.168754 0.661869
578 3 0.386295 0.234994 0.678017
572 4 0.456383 0.119033 0.658675
580 1 0.386429 0.23862 0.617005
576 1 0.415244 0.18859 0.678924
579 1 0.397153 0.208685 0.628979
587 1 0.443729 0.336657 0.571798
584 1 0.396611 0.289505 0.579295
586 1 0.448339 0.305048 0.56188
585 1 0.419995 0.289753 0.556399
589 3 0.492793 0.358175 0.55283
597 1 0.467002 0.319425 0.736584
594 3 0.422871 0.400277 0.696364
595 1 0.459161 0.35864 0.696779
592 1 0.452013 0.389977 0.64995
591 1 0.454947 0.365339 0.62721
593 4 0.439041 0.378012 0.678278
588 4 0.473864 0.348484 0.579048
596 1 0.447167 0.341731 0.722942
582 4 0.372582 0.267745 0.573191
590 1 0.469498 0.374469 0.598934
583 3 0.364508 0.271316 0.541437
598 4 0.453599 0.299879 0.760137
600 2 0.471689 0.272887 0.766629
599 3 0.421977 0.291004 0.753494
ITEM: TIMESTEP
19700000
ITEM: NUMBER OF ATOMS
30
ITEM: BOX BOUNDS xy xz yz pp pp pp
111.716 158.284 0
111.716 158.284 0
111.716 158.284 0
ITEM: ATOMS id type xs ys zs
599 3 0.224402 0.1005 0.0346897
597 1 0.204061 0.142116 0.00675017
600 2 0.192408 0.137322 0.0601394
598 4 0.199657 0.121986 0.0321856
576 1 0.147977 0.00376019 0.951026
577 4 0.141844 0.0349918 0.941424
584 1 0.137353 0.102231 0.84724
593 4 0.161612 0.204983 0.968229
583 3 0.0993191 0.0783674 0.81727
586 1 0.167612 0.146831 0.835421
578 3 0.120193 0.0492049 0.961023
592 1 0.167201 0.221106 0.93986
582 4 0.108138 0.0868115 0.847574
591 1 0.174486 0.199309 0.916504
595 1 0.187295 0.188802 0.980686
589 3 0.205003 0.192474 0.841959
588 4 0.187541 0.184748 0.868244
581 1 0.107773 0.0625413 0.868834
587 1 0.16084 0.166174 0.860484
590 1 0.180564 0.210541 0.886597
580 1 0.125317 0.0652138 0.896924
585 1 0.141292 0.128384 0.82725
579 1 0.133984 0.036048 0.909215
594 3 0.146865 0.221853 0.992091
596 1 0.178924 0.160869 0.999181
572 4 0.195676 0.942323 0.915824
575 1 0.170414 0.98847 0.932169
573 3 0.183574 0.946124 0.8854
574 1 0.17919 0.958032 0.939597
571 2 0.205018 0.911339 0.923087
ITEM: TIMESTEP
19800000
ITEM: NUMBER OF ATOMS
30
ITEM: BOX BOUNDS xy xz yz pp pp pp
111.698 158.302 0
111.698 158.302 0
111.698 158.302 0
ITEM: ATOMS id type xs ys zs
589 3 0.950772 0.017289 0.0951663
592 1 0.899609 0.0131969 0.196075
590 1 0.92513 0.0133454 0.144685
594 3 0.881632 0.0147273 0.247995
571 2 0.914519 0.707921 0.171881
572 4 0.929774 0.728583 0.191798
573 3 0.962782 0.730193 0.186129
576 1 0.91962 0.809878 0.216177
581 1 0.877206 0.877531 0.13566
575 1 0.933617 0.778834 0.215176
580 1 0.90337 0.861314 0.148351
587 1 0.918177 0.973962 0.108228
578 3 0.95395 0.841034 0.190146
586 1 0.928279 0.953957 0.0841605
593 4 0.897569 0.997272 0.225187
574 1 0.91675 0.758458 0.193795
584 1 0.903422 0.910996 0.108178
585 1 0.908781 0.92817 0.0814996
579 1 0.900491 0.848951 0.17837
591 1 0.913512 0.996842 0.170768
577 4 0.924272 0.828168 0.188291
588 4 0.937663 0.998264 0.118092
582 4 0.880952 0.888091 0.105316
595 1 0.927057 0.984702 0.234565
583 3 0.887341 0.863401 0.0832223
599 3 0.983058 0.906027 0.291947
598 4 0.960171 0.928756 0.291112
600 2 0.956612 0.947167 0.319174
597 1 0.958334 0.946362 0.263041
596 1 0.927289 0.960412 0.258663
ITEM: TIMESTEP
19900000
ITEM: NUMBER OF ATOMS
30
ITEM: BOX BOUNDS xy xz yz pp pp pp
111.629 158.371 0
111.629 158.371 0
111.629 158.371 0
ITEM: ATOMS id type xs ys zs
576 1 0.660617 0.637819 0.489765
578 3 0.642365 0.687675 0.495288
583 3 0.603819 0.701996 0.351222
577 4 0.655395 0.666816 0.474668
582 4 0.614637 0.709344 0.381197
580 1 0.635901 0.688993 0.428549
581 1 0.620444 0.682421 0.399423
584 1 0.642992 0.727618 0.378003
579 1 0.637156 0.662751 0.447482
592 1 0.650998 0.837188 0.481059
585 1 0.640795 0.753953 0.358604
591 1 0.659391 0.81715 0.456503
587 1 0.651813 0.796497 0.390349
586 1 0.663526 0.774872 0.368303
593 4 0.642268 0.818816 0.508044
594 3 0.635724 0.838671 0.532977
595 1 0.659611 0.792252 0.514139
573 3 0.683209 0.531397 0.464896
571 2 0.719531 0.571067 0.456594
574 1 0.672623 0.584355 0.481702
572 4 0.687461 0.563816 0.46118
575 1 0.674854 0.61595 0.468901
599 3 0.703954 0.717899 0.54425
598 4 0.691252 0.74681 0.553701
589 3 0.691237 0.834519 0.379357
588 4 0.676122 0.815094 0.401162
590 1 0.667973 0.832219 0.428776
596 1 0.686998 0.798369 0.530441
600 2 0.691369 0.751211 0.58674
597 1 0.705224 0.770961 0.53593
ITEM: TIMESTEP
20000000
ITEM: NUMBER OF ATOMS
30
ITEM: BOX BOUNDS xy xz yz pp pp pp
111.653 158.347 0
111.653 158.347 0
111.653 158.347 0
ITEM: ATOMS id type xs ys zs
583 3 0.332665 0.516535 0.687295
573 3 0.538347 0.390553 0.70922
571 2 0.492138 0.393473 0.681291
572 4 0.508219 0.403358 0.709008
574 1 0.506504 0.436979 0.712646
579 1 0.422259 0.468605 0.728852
575 1 0.479254 0.452387 0.721616
580 1 0.401775 0.493596 0.732685
581 1 0.379728 0.495659 0.708339
577 4 0.44197 0.465841 0.755938
578 3 0.424055 0.45839 0.782585
576 1 0.466406 0.443876 0.750569
582 4 0.356752 0.519837 0.709883
585 1 0.387135 0.557446 0.680984
589 3 0.442783 0.63422 0.678898
588 4 0.431329 0.624791 0.707605
590 1 0.420586 0.651059 0.724614
587 1 0.404695 0.60634 0.700043
584 1 0.372739 0.548827 0.709588
586 1 0.411682 0.579437 0.684306
600 2 0.420316 0.614951 0.875668
599 3 0.451013 0.578399 0.850438
596 1 0.424652 0.654066 0.821038
593 4 0.378268 0.664434 0.793871
597 1 0.442906 0.629242 0.831058
592 1 0.396251 0.673112 0.766708
595 1 0.395242 0.643069 0.811297
594 3 0.366363 0.69126 0.809112
598 4 0.430156 0.603276 0.847391
591 1 0.403004 0.645202 0.751388
ITEM: TIMESTEP
20100000
ITEM: NUMBER OF ATOMS
30
ITEM: BOX BOUNDS xy xz yz pp pp pp
111.682 158.318 0
111.682 158.318 0
111.682 158.318 0
ITEM: ATOMS id type xs ys zs
571 2 0.219652 0.221196 0.952412
572 4 0.226352 0.220766 0.984606
573 3 0.236838 0.191527 0.995322
574 1 0.246112 0.245875 0.991475
576 1 0.21175 0.276763 0.0178573
598 4 0.177231 0.428245 0.103592
596 1 0.148299 0.473988 0.107323
578 3 0.1845 0.309194 0.0502375
600 2 0.151781 0.413845 0.0874626
599 3 0.196471 0.406173 0.117967
597 1 0.171004 0.453643 0.121291
577 4 0.196874 0.305348 0.0213412
591 1 0.152584 0.497322 0.0155022
595 1 0.159538 0.494613 0.0839785
583 3 0.0955871 0.365501 0.945958
582 4 0.118042 0.367925 0.970283
575 1 0.230878 0.274168 0.991117
579 1 0.175103 0.310066 0.995772
581 1 0.137341 0.341303 0.971733
585 1 0.151953 0.407595 0.943868
584 1 0.135157 0.396204 0.970484
586 1 0.171642 0.433316 0.949553
587 1 0.158209 0.459825 0.963262
588 4 0.177596 0.487331 0.967186
589 3 0.189814 0.498426 0.938569
580 1 0.154064 0.336012 0.999755
593 4 0.132637 0.505853 0.067109
594 3 0.115008 0.525862 0.0867344
592 1 0.137376 0.518265 0.0360589
590 1 0.165071 0.510233 0.987267
ITEM: TIMESTEP
20200000
ITEM: NUMBER OF ATOMS
30
ITEM: BOX BOUNDS xy xz yz pp pp pp
111.636 158.364 0
111.636 158.364 0
111.636 158.364 0
ITEM: ATOMS id type xs ys zs
571 2 0.971595 0.0332685 0.225297
584 1 0.887848 0.206424 0.229354
583 3 0.845834 0.190501 0.197819
582 4 0.862706 0.185206 0.225095
581 1 0.868984 0.154162 0.229231
585 1 0.878235 0.238248 0.229668
572 4 0.945294 0.0184385 0.238785
578 3 0.904692 0.125455 0.317155
579 1 0.888536 0.118901 0.266347
576 1 0.920426 0.0813025 0.290739
574 1 0.934388 0.0350132 0.265131
580 1 0.885968 0.150703 0.25756
577 4 0.911491 0.11245 0.288461
575 1 0.925807 0.0665421 0.261636
599 3 0.820736 0.205237 0.369405
600 2 0.861958 0.177485 0.395828
598 4 0.847111 0.205997 0.390583
597 1 0.863973 0.233252 0.389521
588 4 0.911239 0.311724 0.247952
586 1 0.903592 0.259356 0.228514
589 3 0.932892 0.320871 0.225735
587 1 0.890225 0.288831 0.235128
594 3 0.8352 0.307296 0.331146
592 1 0.886748 0.308927 0.314427
593 4 0.864618 0.29026 0.329991
595 1 0.87485 0.273572 0.357438
591 1 0.873645 0.319919 0.286311
596 1 0.854185 0.250763 0.363691
590 1 0.895125 0.334145 0.266518
573 3 0.9499 0.986552 0.246877
ITEM: TIMESTEP
20300000
ITEM: NUMBER OF ATOMS
30
ITEM: BOX BOUNDS xy xz yz pp pp pp
111.676 158.324 0
111.676 158.324 0
111.676 158.324 0
ITEM: ATOMS id type xs ys zs
589 3 0.645837 0.125135 0.484167
599 3 0.587151 0.0300634 0.624884
592 1 0.621996 0.147714 0.579503
594 3 0.598047 0.176874 0.619853
600 2 0.639255 0.0324833 0.601002
595 1 0.616234 0.125547 0.628643
597 1 0.62371 0.0710632 0.63664
590 1 0.622058 0.158236 0.524688
596 1 0.612149 0.0948926 0.61698
593 4 0.603257 0.147563 0.607052
585 1 0.591391 0.055077 0.521752
598 4 0.619453 0.0402639 0.626381
591 1 0.606786 0.161384 0.554366
584 1 0.603909 0.0252246 0.519116
586 1 0.611183 0.0769107 0.507318
588 4 0.630812 0.127879 0.514315
587 1 0.604665 0.108055 0.514967
577 4 0.660991 0.920771 0.499833
579 1 0.635893 0.928397 0.519655
582 4 0.588421 0.998212 0.53218
581 1 0.60718 0.971913 0.536197
583 3 0.558126 0.991624 0.517204
580 1 0.618237 0.955056 0.510055
578 3 0.677849 0.947951 0.490199
571 2 0.771246 0.882739 0.493731
575 1 0.705948 0.889668 0.494508
573 3 0.766735 0.835733 0.522987
576 1 0.679858 0.897699 0.513426
574 1 0.722728 0.869669 0.514804
572 4 0.751053 0.858529 0.504418
ITEM: TIMESTEP
20400000
ITEM: NUMBER OF ATOMS
30
ITEM: BOX BOUNDS xy xz yz pp pp pp
111.685 158.315 0
111.685 158.315 0
111.685 158.315 0
ITEM: ATOMS id type xs ys zs
594 3 0.324306 0.00967006 0.849003
583 3 0.290528 0.845925 0.776996
582 4 0.316768 0.83646 0.792514
581 1 0.324905 0.804571 0.790733
571 2 0.488343 0.663034 0.797487
576 1 0.407346 0.733071 0.788616
575 1 0.440033 0.729007 0.785064
572 4 0.480443 0.694573 0.789185
574 1 0.449757 0.698231 0.776176
573 3 0.502304 0.713338 0.774886
589 3 0.396395 0.949724 0.732046
599 3 0.367505 0.863345 0.911004
598 4 0.371127 0.879427 0.883388
579 1 0.366533 0.768495 0.790566
577 4 0.396823 0.762467 0.800804
578 3 0.403788 0.766232 0.833561
595 1 0.343519 0.958871 0.866172
590 1 0.380292 0.988706 0.768273
600 2 0.355331 0.863316 0.859884
592 1 0.365599 0.982534 0.821288
588 4 0.386098 0.956091 0.762331
596 1 0.3614 0.931145 0.863141
580 1 0.35436 0.796725 0.802196
597 1 0.358908 0.910392 0.88721
587 1 0.357838 0.936725 0.766762
586 1 0.362383 0.903946 0.770838
593 4 0.339788 0.980649 0.842665
584 1 0.343433 0.85353 0.783004
585 1 0.337505 0.885236 0.783226
591 1 0.357305 0.994386 0.791108
ITEM: TIMESTEP
20500000
ITEM: NUMBER OF ATOMS
30
ITEM: BOX BOUNDS xy xz yz pp pp pp
111.632 158.368 0
111.632 158.368 0
111.632 158.368 0
ITEM: ATOMS id type xs ys zs
572 4 0.23482 0.479175 0.0139313
571 2 0.233145 0.468198 0.043192
574 1 0.208593 0.499299 0.0103355
573 3 0.236341 0.455518 0.990957
582 4 0.0807786 0.634504 0.0653207
580 1 0.119444 0.596942 0.0581376
597 1 0.100495 0.690426 0.175496
579 1 0.128864 0.568319 0.0450667
586 1 0.0804343 0.699545 0.0483042
584 1 0.0583292 0.649803 0.0472211
581 1 0.0882667 0.60635 0.0524582
598 4 0.0724119 0.675683 0.186669
583 3 0.0779968 0.635206 0.0985549
595 1 0.0883297 0.746353 0.166763
576 1 0.170415 0.535811 0.0288493
585 1 0.054874 0.680807 0.0568149
599 3 0.0487803 0.674011 0.163968
600 2 0.0793743 0.649786 0.205977
589 3 0.120799 0.747858 0.027548
587 1 0.0751963 0.731627 0.0549136
575 1 0.200317 0.521602 0.0337974
578 3 0.156425 0.543344 0.0837469
577 4 0.159244 0.555731 0.0524436
596 1 0.0967912 0.716556 0.155069
588 4 0.10368 0.748718 0.0553776
592 1 0.0966107 0.768785 0.117941