LAMMPS (10 Feb 2015)
Read molecule SQL:
  30 atoms with 4 types
  29 bonds with 1 types
  34 angles with 1 types
  31 dihedrals with 2 types
  6 impropers with 1 types
Reading restart file ...
  restart file = 10 Feb 2015, LAMMPS = 10 Feb 2015
WARNING: Restart file used different # of processors (../read_restart.cpp:705)
  triclinic box = (112.628 112.628 112.628) to (157.372 157.372 157.372) with tilt (0 0 0)
  4 by 3 by 4 MPI processor grid
  3750 atoms
  3625 bonds
  4250 angles
  3875 dihedrals
  750 impropers
250 atoms in group endatoms
60 atoms in group samplechains
WARNING: New thermo_style command, previous thermo_modify settings will be lost (../output.cpp:665)
Neighbor list info ...
  1 neighbor list requests
  update every 1 steps, delay 0 steps, check yes
  master list distance cutoff = 10.3
Setting up run ...
Memory usage per processor = 2.18491 Mbytes
Step Time Temp Volume Press Density PotEng TotEng Pxx Pyy Pzz Pxy Pyz Pxz myT 
       0            0    295.73566    89584.282     6654.263     0.979621   -1403.7239    1901.1389    6236.6978    7359.1945    6366.8967    450.00089   -395.46653   -1088.0844    295.73566 
    1000         1000     290.3839    89584.282    5782.5471     0.979621    -1459.466    1785.5907    6635.6582     5169.696    5542.2869   -663.69289   -468.92983   -619.55829     290.3839 
    2000         2000    292.27769    89584.282    6072.5759     0.979621   -1368.4612    1897.7587    5830.3997    6456.8317    5930.4963   -317.95932   -382.92702   -695.37378    292.27769 
    3000         3000    292.80953    89584.282    5305.2175     0.979621   -1416.1549    1856.0082    6563.7526    4187.8437    5164.0562   -863.58123      1078.99    745.09853    292.80953 
    4000         4000     295.8251    89584.282    5624.4298     0.979621   -1436.9885    1868.8738    5668.7233    6465.0694    4739.4968   -62.141118   -539.29072   -277.81749     295.8251 
    5000         5000    294.74355    89584.282    5030.1556     0.979621   -1390.7837    1902.9922    5911.2709    3988.6764    5190.5196    598.48882    993.61966   -525.39536    294.74355 
    6000         6000     289.6758    89584.282    5825.0862     0.979621   -1453.2743    1783.8692    5094.3515    6123.5272      6257.38   -48.439474   -773.90298    136.21783     289.6758 
    7000         7000    292.54938    89584.282    6127.2778     0.979621   -1382.7538    1886.5022    6563.9365    5913.3015    5904.5954    501.23881    109.75949   -49.045885    292.54938 
    8000         8000     290.3229    89584.282    6423.5228     0.979621    -1359.026    1885.3489    5403.8097    7273.0779     6593.681   -649.32968    58.762322    118.94126     290.3229 
    9000         9000    289.94216    89584.282    6783.3324     0.979621   -1350.5355    1889.5846    6233.4732    6993.0749    7123.4491   0.18634454   -987.09398   -940.36567    289.94216 
   10000        10000    294.23757    89584.282    6536.3756     0.979621    -1402.991    1885.1306    6159.9284    5958.7899    7490.4084   -872.52401    178.70902    71.877211    294.23757 
   11000        11000     295.0696    89584.282     6966.982     0.979621   -1380.6162    1916.8033    7419.0724    7152.9855     6328.888    98.162289    255.29187    922.96896     295.0696 
   12000        12000    285.38502    89584.282    5556.3111     0.979621   -1398.9162    1790.2777    5175.7587    5695.4519    5797.7226   -633.21869   -118.47923   -32.307221    285.38502 
   13000        13000    295.68187    89584.282    5675.1537     0.979621   -1380.4587     1923.803    5455.9812    5318.7735    6250.7064   -1376.0064    635.38405    61.138046    295.68187 
   14000        14000    291.44855    89584.282    7568.3351     0.979621   -1433.6468    1823.3074    7922.6025    8071.3656    6711.0372    80.026808    359.05212   -65.253766    291.44855 
   15000        15000    293.95959    89584.282    6029.9272     0.979621   -1333.8522     1951.163    6165.0462    6048.6499    5876.0854   -403.64696   -67.885037    -645.8385    293.95959 
   16000        16000    288.89216    89584.282    6693.1741     0.979621   -1454.3407    1774.0456    6555.4489    6890.7934    6633.2801   -674.66448   -940.06134    417.26094    288.89216 
   17000        17000    301.78072    89584.282    6488.8423     0.979621   -1410.8535    1961.5632     6250.436    5908.1222    7307.9688    252.34297   -224.96852     211.3874    301.78072 
   18000        18000    292.51194    89584.282    6879.4071     0.979621    -1452.301    1816.5366    7019.0591    6175.9377    7443.2245   -240.21726   -2.4932043    35.984007    292.51194 
   19000        19000    291.02367    89584.282    5778.8861     0.979621   -1378.3075    1873.8986    6027.9281     5487.657    5821.0732   -330.31603   -631.10384     231.0924    291.02367 
   20000        20000    292.34374    89584.282    6445.7778     0.979621   -1387.3098    1879.6481    6320.3968    5812.8815    7204.0552   -1074.2543    99.570039   -803.32164    292.34374 
   21000        21000    295.11207    89584.282    6917.8281     0.979621   -1478.9954    1818.8988    6481.0287    8045.1184    6227.3371    127.14501    301.81406   -85.026202    295.11207 
   22000        22000    297.77041    89584.282    5165.4131     0.979621   -1382.9343    1944.6669    4840.5389     6002.255    4653.4456   -655.05759   -777.29441     182.3143    297.77041 
   23000        23000    285.25356    89584.282    6200.9972     0.979621   -1395.0486    1792.6762    6848.1223     5353.502    6401.3674    14.212327    79.303563   -823.11719    285.25356 
   24000        24000    293.45923    89584.282    6585.0288     0.979621   -1382.3023    1897.1213    6954.1537    6241.2273    6559.7053   -137.02849    456.62552    206.01527    293.45923 
   25000        25000    287.44472    89584.282    6098.1361     0.979621    -1333.234    1878.9771    6378.6035    6168.1407    5747.6642    61.781928    757.78388    738.69593    287.44472 
   26000        26000    292.10118    89584.282    6791.1324     0.979621   -1475.7586    1788.4887    6164.7234    6919.6709     7289.003   -397.38734   -210.84464    49.012312    292.10118 
   27000        27000    295.73689    89584.282    5436.5681     0.979621   -1380.9635    1923.9131    5286.9299    5186.7159    5836.0587   -998.35812   -343.70653   -142.23903    295.73689 
   28000        28000    294.12053    89584.282    7232.2116     0.979621    -1463.468    1823.3457    6875.4896    6716.4298    8104.7153   -465.45818   -549.72834    233.10771    294.12053 
   29000        29000    298.47706    89584.282    6538.2938     0.979621   -1437.7569    1897.7413    5687.2279    6707.7794    7219.8742   -46.853937   -211.81993    283.93937    298.47706 
   30000        30000    294.91286    89584.282    6765.8105     0.979621   -1362.2125    1933.4555    7352.9373    6155.1474    6789.3469    81.959174   -524.85809    555.71439    294.91286 
   31000        31000    294.76871    89584.282    6112.7045     0.979621   -1422.8423    1871.2148    6782.7991     5833.216    5722.0984   -429.58144    475.69218    12.320357    294.76871 
   32000        32000     291.4271    89584.282    6330.9635     0.979621    -1423.076    1833.6384    6489.7193    6058.2263    6444.9447    -765.6704   -282.59249    2.7674753     291.4271 
   33000        33000    302.01103    89584.282    6789.0342     0.979621   -1405.4603    1969.5301    6941.6661    6892.8502    6532.5864    96.019116   -191.34171      163.996    302.01103 
   34000        34000     288.8255    89584.282    5975.8096     0.979621   -1433.5121    1794.1293    6547.3096    6059.7287    5320.3903   -600.91842   -280.65778   -490.41769     288.8255 
   35000        35000    287.98771    89584.282    6344.9337     0.979621   -1420.3577    1797.9214     6070.082    6268.8616    6695.8574   -956.62634   -354.18367   -333.51824    287.98771 
   36000        36000    296.57626    89584.282    5965.9922     0.979621   -1373.7147    1940.5418    6674.3814    4950.8521    6272.7433   -359.46999    252.99608   -797.25466    296.57626 
   37000        37000    291.75729    89584.282    5760.5388     0.979621   -1363.1133     1897.291    5375.8358    6554.9053    5350.8753   -809.94688    146.30916   -70.426466    291.75729 
   38000        38000    291.42503    89584.282    5463.9404     0.979621   -1414.4212      1842.27    5229.1825    5070.9667     6091.672   -1159.1825   -507.99152    187.08501    291.42503 
   39000        39000     294.1725    89584.282    6179.4982     0.979621   -1443.7632    1843.6312    6195.9927    6265.4814    6077.0206   -370.47674    33.396889    84.715932     294.1725 
   40000        40000     291.3414    89584.282    6559.5342     0.979621   -1378.6182    1877.1385    6568.7527    6559.1435    6550.7063   -589.43306   -810.84558    -823.3156     291.3414 
   41000        41000    292.33107    89584.282    5930.1006     0.979621    -1367.958    1898.8584    6379.5871    5915.4392    5495.2754    -861.7516   -138.52522   -560.36868    292.33107 
   42000        42000    290.21324    89584.282    6322.0256     0.979621   -1364.6169    1878.5325    5738.6821    7042.2943    6185.1002   -1053.1763    227.23001   -138.96415    290.21324 
   43000        43000    291.64406    89584.282    6058.1297     0.979621   -1377.2702    1881.8688    5954.1803    5681.5084    6538.7004   -293.46963   -264.86453    -124.5256    291.64406 
   44000        44000    294.59105    89584.282    5806.3884     0.979621    -1376.504    1915.5677    6079.0575    5209.2122    6130.8954   -453.84096     528.0719   -70.842822    294.59105 
   45000        45000    295.68484    89584.282    6210.9412     0.979621   -1365.7078    1938.5871    5460.9386     5893.768    7278.1168   -383.84035    351.06557    134.77348    295.68484 
   46000        46000    293.42217    89584.282     7617.292     0.979621   -1388.6871    1890.3223    8185.3907    7303.7244    7362.7608   -69.857243   -67.333472    274.89386    293.42217 
   47000        47000    292.38461    89584.282    5881.0401     0.979621   -1381.3189    1886.0957    5754.3035    6180.5623    5708.2544   -449.79652    49.577082   -1190.4201    292.38461 
   48000        48000    296.28437    89584.282    6061.9833     0.979621   -1410.8199    1900.1748    5433.3954    6517.3626    6235.1919   -577.97324    510.68103    396.46846    296.28437 
   49000        49000    292.65039    89584.282    7405.7243     0.979621   -1384.3632    1886.0215    8405.2598    6975.1563    6836.7569   -966.51128    544.17216   -217.49781    292.65039 
   50000        50000    293.87735    89584.282    6978.4426     0.979621   -1376.2407    1907.8553    7542.3081    6825.7848     6567.235   -111.87987   -80.979218    328.76417    293.87735 
   51000        51000    288.47461    89584.282    6264.5145     0.979621    -1330.701    1893.0191    6106.8264      6964.58    5722.1372    216.05606   -193.24735   -895.80867    288.47461 
   52000        52000    291.97279    89584.282    7579.7438     0.979621   -1341.6719    1921.1406    8638.2013    6971.5536    7129.4766   -614.52005   -629.26787   -124.72172    291.97279 
   53000        53000    286.45802    89584.282    6046.4557     0.979621   -1415.7841    1785.4006     6102.625    5792.8102     6243.932   -437.84982   -354.28265    374.22457    286.45802 
   54000        54000    302.60591    89584.282    6187.3264     0.979621   -1239.9932    2141.6451    6997.2968    5823.4913    5741.1911   -917.01692   -467.04537   -174.49131    302.60591 
   55000        55000    284.60329    89584.282    6768.6772     0.979621    -1446.432    1734.0259    7294.6904    6488.7466    6522.5945   -1595.9581    1120.4853     592.4079    284.60329 
   56000        56000    293.60187    89584.282    7001.6834     0.979621   -1300.1119    1980.9057    6710.6438    6808.6641    7485.7423   -975.14879    -431.0807   -973.43918    293.60187 
   57000        57000    301.33887    89584.282    5954.8562     0.979621   -1476.8868    1890.5921    5933.1014    5402.1216    6529.3457   -1750.6613   -541.04748    1282.1999    301.33887 
   58000        58000    293.32478    89584.282     6183.395     0.979621   -1375.0605    1902.8606    6670.1078     6494.183     5385.894   -1348.2278   -389.70931   -844.39268    293.32478 
   59000        59000    297.75192    89584.282     6857.423     0.979621   -1364.1698    1963.2249    7368.9296    6153.7386    7049.6007   -522.09578   -495.05554   -231.55752    297.75192 
   60000        60000    290.98926    89584.282    6062.4796     0.979621   -1465.6407    1786.1808    5051.3592    5635.4237     7500.656   -470.70717   -486.87545   -173.96968    290.98926 
   61000        61000    304.83369    89584.282    6445.2663     0.979621   -1389.9821    2016.5517    6848.4876    6394.0397    6093.2715   -1385.5122    292.38458    151.72668    304.83369 
   62000        62000    295.31077    89584.282     6944.562     0.979621   -1425.7303    1874.3844    7985.3883    6106.3656     6741.932   -807.58161    1311.9917    54.707095    295.31077 
   63000        63000    283.78501    89584.282    6176.6481     0.979621   -1318.6145    1852.6991    6717.6214    5810.2734    6002.0496    -703.7852   -111.32994   -55.599495    283.78501 
   64000        64000    292.87015    89584.282    6637.5221     0.979621   -1291.3793    1981.4613    6670.8195    7279.0465    5962.7004   -1037.3336   -358.15458   -553.43667    292.87015 
   65000        65000     289.9132    89584.282    5636.8659     0.979621   -1271.6818    1968.1147    5928.6269    6070.1223    4911.8486   -860.23265    352.32481    166.38146     289.9132 
   66000        66000    285.79043    89584.282    6391.2781     0.979621   -1368.9823    1824.7421    6634.2992    6597.7972    5941.7381   -1474.6673   -181.95611   -663.46017    285.79043 
   67000        67000    290.37508    89584.282    5899.3021     0.979621   -1389.4132    1855.5448    6811.1193     5461.273     5425.514   -704.63274   -499.81147    -319.1724    290.37508 
   68000        68000     294.1942    89584.282    5719.4069     0.979621   -1301.7943    1985.8427    5272.6843    6660.3703    5225.1662   -874.81911    -416.5216    53.437406     294.1942 
   69000        69000    287.54401    89584.282    6947.7291     0.979621   -1384.8194    1828.5013    6325.4581     6785.043    7732.6863   -1198.0014   -537.32121   -431.89661    287.54401 
   70000        70000    294.77875    89584.282    6429.4809     0.979621   -1355.5543     1938.615    6167.3219     6977.099    6144.0216   -1796.9603   -451.33487   -78.350499    294.77875 
   71000        71000     288.6746    89584.282    5959.5486     0.979621   -1375.6924    1850.2627    5902.2887    5959.5283    6016.8288   -302.56738   -261.24713    386.46244     288.6746 
   72000        72000    298.85323    89584.282    6325.3499     0.979621   -1375.7533    1963.9485    6465.8003     6110.625    6399.6245   -985.21785    17.657749    86.985676    298.85323 
   73000        73000    294.51999    89584.282    6485.3738     0.979621   -1408.3564    1882.9213    6543.9986    6745.4208    6166.7021   -482.17699    1058.1355    157.43393    294.51999 
   74000        74000    294.32005    89584.282    6655.6983     0.979621   -1273.8789    2015.1645    6521.9854    6267.6044    7177.5051   -1156.3676   -619.75001   -472.16242    294.32005 
   75000        75000    287.24217    89584.282    6362.2411     0.979621   -1355.8472    1854.1004    6371.4075    6085.9159    6629.3998    -1576.376   -170.78838   -475.17705    287.24217 
   76000        76000    298.61318    89584.282    6960.1543     0.979621   -1336.0092    2001.0101    7097.4657    6636.1155    7146.8817   -393.54654   -456.55873    95.149799    298.61318 
   77000        77000    293.64888    89584.282    7006.1886     0.979621   -1437.4844    1844.0586    6473.5425    7290.8196    7254.2038   -1274.5308    249.96695     304.6814    293.64888 
   78000        78000    298.36721    89584.282    5427.6266     0.979621   -1309.1422    2025.1283     5924.972    5758.2507     4599.657   -1452.8759    174.41085   -600.33587    298.36721 
   79000        79000     293.0337    89584.282    6265.0708     0.979621   -1328.2709    1946.3974    6804.1401    5642.6135    6348.4589   -626.26436    560.80665   -316.48789     293.0337 
   80000        80000    292.88702    89584.282    6774.0373     0.979621   -1374.5751     1898.454    7186.3575    7238.0256    5897.7287   -1346.5569    332.73108    143.28481    292.88702 
   81000        81000    296.69756    89584.282    6606.6544     0.979621   -1273.0242     2042.588    7526.6913    6823.5941    5469.6778   -769.56955    285.97277    304.84512    296.69756 
   82000        82000    291.38108    89584.282    7104.2626     0.979621   -1368.1179    1888.0822    6803.2518     7499.909    7009.6268   -840.48091   -461.28132   -184.07441    291.38108 
   83000        83000    291.08437    89584.282    6311.0476     0.979621    -1323.282    1929.6023    7025.4255    5655.7259    6251.9913   -1388.3768   -1167.2277   -347.95801    291.08437 
   84000        84000    289.26477    89584.282    6417.2682     0.979621   -1387.0019    1845.5483    7664.7555    6079.3125    5507.7366   -1214.1163   -104.31952   -107.59875    289.26477 
   85000        85000    291.22668    89584.282     5442.111     0.979621   -1286.3424    1968.1323    5163.4927    6085.4987    5077.3416   -1165.8013    335.29436   -2.3776601    291.22668 
   86000        86000    294.50865    89584.282    5216.5942     0.979621   -1354.3106    1936.8404    4959.7773    5670.5172    5019.4882   -1677.1501    41.451976    227.33154    294.50865 
   87000        87000    299.61717    89584.282    7626.1118     0.979621   -1301.2383    2047.0006    7220.4056    7799.5586    7858.3711   -1399.1399    229.22496    485.46586    299.61717 
   88000        88000    297.54253    89584.282    7214.0314     0.979621   -1391.0846    1933.9701    7790.5735    6455.4242    7396.0964    -841.2556   -109.95566   -95.627007    297.54253 
   89000        89000    295.17573    89584.282    7616.7418     0.979621   -1392.7087    1905.8968    8013.9602    7265.3761    7570.8891   -1075.3698   -888.15051   -247.50413    295.17573 
   90000        90000    295.94131    89584.282    6442.6699     0.979621   -1268.9705    2038.1904    7102.7575    6422.5711    5802.6811   -473.19573    389.35057    187.05066    295.94131 
   91000        91000    287.41761    89584.282     6522.204     0.979621   -1323.1427    1888.7654    6322.1245     6331.204    6913.2836   -1101.0077   -343.81415    178.18675    287.41761 
   92000        92000    292.56915    89584.282    6801.6352     0.979621   -1361.0094    1908.4675    6925.4928    6781.4121    6698.0006   -1565.9822    566.36597     343.6791    292.56915 
   93000        93000    299.50407    89584.282    7155.3708     0.979621   -1311.1256    2035.8495    7667.6132    6627.2417    7171.2575   -765.80988    254.89766    404.86999    299.50407 
   94000        94000    290.28484    89584.282    5990.2665     0.979621   -1342.5169    1901.4327    7127.3996    5837.8002    5005.5998   -1423.8016    505.03343    611.52205    290.28484 
   95000        95000    297.22795    89584.282    5935.5619     0.979621   -1322.3886    1999.1506    5907.1284    6604.5011    5295.0563   -947.25416   -12.116913   -39.720382    297.22795 
   96000        96000    292.94697    89584.282     6530.715     0.979621   -1357.7448    1915.9542    6685.8019    5362.6518    7543.6912   -1139.7484    209.71974   -166.91989    292.94697 
   97000        97000    294.49981    89584.282    7470.1939     0.979621   -1344.5743    1946.4778    7021.1844    6809.5206    8579.8769   -2475.8825   -383.10333    278.31092    294.49981 
   98000        98000    297.26308    89584.282    7442.8343     0.979621   -1305.0499    2016.8819    8208.9095    7682.6199    6436.9734   -1384.8917   -665.40403     -566.816    297.26308 
   99000        99000     286.9958    89584.282    7079.8543     0.979621   -1331.4795    1875.7149    7593.0184     5976.129    7670.4156   -1595.7107   -521.98409   -1212.6466     286.9958 
  100000       100000    291.80478    89584.282    7448.5336     0.979621   -1325.4206    1935.5144    6970.9517    8212.9322     7161.717   -1937.9068   -300.11963   -172.13807    291.80478 
  101000       101000    296.28421    89584.282    6997.9177     0.979621   -1336.3461    1974.6468    7338.9644    6158.7608    7496.0279    -897.5277     371.1732    605.93833    296.28421 
  102000       102000    293.68961    89584.282    7782.4267     0.979621   -1301.0143    1980.9838     7194.416    8010.9008    8141.9633   -1364.0187    354.09996    221.83904    293.68961 
  103000       103000    293.71697    89584.282    6283.7344     0.979621   -1365.1065    1917.1974    6283.7823    6504.9832    6062.4376   -1914.1157    512.78311   -40.492478    293.71697 
  104000       104000    289.26341    89584.282    7046.9642     0.979621   -1273.0191    1959.5159    6222.1285    7887.9046    7030.8595   -1583.6734    272.41168   -154.36905    289.26341 
  105000       105000    294.65254    89584.282    6399.0995     0.979621   -1302.4739    1990.2851     7421.034    5697.6438    6078.6206   -1764.6115   -147.46254    416.62629    294.65254 
  106000       106000     294.5097    89584.282    6949.4495     0.979621    -1396.024    1895.1387    7050.6915    7632.6031     6165.054   -1517.8776   -541.54397   -468.17561     294.5097 
  107000       107000    293.35633    89584.282    6760.4966     0.979621   -1285.8381    1992.4355    7519.3231    6446.7286    6315.4382   -922.56118   -433.86459    100.94831    293.35633 
  108000       108000    291.10158    89584.282    6374.4168     0.979621   -1300.3994    1952.6774     6097.804    6292.5708    6732.8758   -2225.4797    101.81756   -310.64754    291.10158 
  109000       109000     296.7924    89584.282    6901.1085     0.979621   -1277.0236    2039.6483    6951.2108    6844.0016     6908.113   -1207.6988   -221.38563    164.86589     296.7924 
  110000       110000    284.06503    89584.282    7251.1238     0.979621   -1308.0967    1866.3462    7652.1497    7295.4964    6805.7253   -1245.5953   -182.14587    282.61564    284.06503 
  111000       111000    295.97733    89584.282     6682.929     0.979621   -1301.6106    2005.9528    7818.3318    6282.9711    5947.4842   -920.14981    375.71316    188.02007    295.97733 
  112000       112000    290.75381    89584.282    6650.3852     0.979621   -1305.0977    1944.0927    6494.2166    6602.1124    6854.8267   -1562.1099   -5.0090693     269.5383    290.75381 
  113000       113000    291.46309    89584.282    7509.0439     0.979621   -1260.7931    1996.3235    7004.3955    8192.2727    7330.4636   -1047.5881    77.659422    220.08159    291.46309 
  114000       114000    289.94122    89584.282     6530.664     0.979621   -1258.4796      1981.63    7035.6219    6236.7992     6319.571   -1808.6562   -276.60649    240.91356    289.94122 
  115000       115000    290.53545    89584.282    6081.4056     0.979621   -1368.6459    1878.1043    6558.6275     5133.213    6552.3763    -1092.797   -267.69591   -456.52559    290.53545 
  116000       116000    292.87895    89584.282     6782.892     0.979621   -1275.3735    1997.5654    6934.9107    6918.1816    6495.5836   -1768.4067   -91.320198    393.82952    292.87895 
  117000       117000    294.52948    89584.282    6795.2719     0.979621   -1281.5901    2009.7936     6777.404    5936.9759    7671.4358   -875.75465   -118.74315   -184.65149    294.52948 
  118000       118000    293.54155    89584.282    5572.7613     0.979621   -1306.4999    1973.8436     5365.849    5956.3582    5396.0768   -1189.1739    367.84439   -578.27729    293.54155 
  119000       119000    298.76426    89584.282    6945.0442     0.979621   -1221.2942    2117.4134    7905.8393    6466.1837    6463.1096   -1615.0919   -425.58924   -233.02195    298.76426 
  120000       120000     288.6683    89584.282    7932.9963     0.979621   -1330.0778    1895.8069    8598.5716    7526.8998    7673.5175   -1217.8092   -154.14437   -935.13264     288.6683 
  121000       121000    298.78214    89584.282    7036.2971     0.979621   -1325.8101    2013.0973    7691.9446    7470.7827     5946.164   -1245.5297   -155.92109    126.24921    298.78214 
  122000       122000    289.58098    89584.282    5981.9214     0.979621   -1267.0498    1969.0341     6416.921    5039.9706    6488.8726   -1025.5107    40.887485     350.0965    289.58098 
  123000       123000    293.66974    89584.282    6422.9346     0.979621   -1234.6882    2047.0878    6238.6431    7647.2057    5382.9551   -1232.8648    271.93828   -346.65188    293.66974 
  124000       124000    291.61463    89584.282    6429.4036     0.979621   -1263.6499    1995.1601    6527.7731    6106.8301    6653.6075   -1390.5467   -1273.4774   -243.27384    291.61463 
  125000       125000    289.02295    89584.282    6368.6736     0.979621   -1225.6113    2004.2366    6497.8225    6562.0692     6046.129   -1810.4735   -939.06846   -624.09456    289.02295 
  126000       126000     293.0094    89584.282    6731.0515     0.979621   -1243.6967    2030.7001    6236.8794    7060.5192     6895.756   -1899.0879   -670.35871   -302.71585     293.0094 
  127000       127000    287.52877    89584.282    5994.3311     0.979621   -1226.6348    1986.5155    5157.9491    6274.3281    6550.7163   -1556.1811    352.68844    435.43014    287.52877 
  128000       128000    288.99358    89584.282    5484.0636     0.979621   -1204.2717     2025.248     5598.736    6202.2299     4651.225   -1030.7251    22.386396   -206.05155    288.99358 
  129000       129000     287.0615    89584.282    7293.5273     0.979621   -1253.8262    1954.1023    7226.9433     6888.725    7764.9134   -996.07947   -268.02821   -76.118614     287.0615 
  130000       130000    301.20967    89584.282    6998.9243     0.979621   -1264.3902     2101.645    6189.7085    7708.4838    7098.5805   -1182.8301   -445.40821   -121.85136    301.20967 
  131000       131000    287.85812    89584.282    7324.5628     0.979621    -1279.647    1937.1839    7129.3182    7113.2282    7731.1419   -1385.3678    27.557759   -751.02713    287.85812 
  132000       132000    296.41356    89584.282    7946.4397     0.979621   -1197.6341    2114.8043    7598.6538    7821.8502    8418.8151     -1524.73   -598.52629   -325.21629    296.41356 
  133000       133000    291.12312    89584.282    7300.0431     0.979621   -1305.7411    1947.5764    6486.3015    7353.7486    8060.0793   -1961.2939    552.32081    768.20419    291.12312 
  134000       134000    294.22405    89584.282    6048.5088     0.979621    -1167.357    2120.6135    6539.3555    5983.2867    5622.8843   -955.03045    107.15625    522.60622    294.22405 
  135000       135000     287.0054    89584.282    6381.4503     0.979621     -1252.89    1954.4116    6873.8257    6233.0375    6037.4879   -997.48629   -391.96059    624.40651     287.0054 
  136000       136000    302.51191    89584.282    6223.2192     0.979621   -1205.8592    2174.7286    6889.0872    5996.1056    5784.4649   -1578.3256   -443.36383   -350.91887    302.51191 
  137000       137000    285.83384    89584.282    6458.6314     0.979621   -1309.0334     1885.176    6046.7166    6331.9405    6997.2372   -1363.6833    201.72971   -120.75107    285.83384 
  138000       138000    293.90851    89584.282    7493.1086     0.979621    -1193.418    2091.0264    7614.7145    7830.8701    7033.7411   -1655.6992   -93.264052    692.58674    293.90851 
  139000       139000     295.3861    89584.282    7048.5726     0.979621    -1279.236    2021.7205    7133.1659    6971.2255    7041.3265   -1300.2207    -540.1632   -319.30859     295.3861 
  140000       140000     297.0146    89584.282    6695.7091     0.979621   -1209.2486    2109.9065    5955.7115    7200.6274    6930.7885    -830.6718    14.347844    881.68038     297.0146 
  141000       141000    289.96565    89584.282    7298.1064     0.979621   -1253.3459    1987.0367    6680.5193    8008.1972    7205.6027   -1928.3193    88.447246     263.5397    289.96565 
  142000       142000    291.48406    89584.282    6879.5697     0.979621    -1157.084    2100.2669    7495.1159    6465.2042     6678.389   -1296.6482   -182.89153    71.867392    291.48406 
  143000       143000    283.59693    89584.282    6639.3649     0.979621   -1215.6014    1953.6104    6590.1786    6582.3207    6745.5955    -1226.023    1169.6201   -383.90584    283.59693 
  144000       144000    293.29689    89584.282    6614.0631     0.979621   -1142.6974     2134.912     6669.989    7348.2811    5823.9193   -1707.5751    104.91607   -490.04744    293.29689 
  145000       145000    293.63384    89584.282    7331.7263     0.979621   -1252.7861    2028.5888    7455.5512    7442.1828    7097.4449   -1191.1451   -45.184723   -91.127482    293.63384 
  146000       146000    291.25011    89584.282    7394.1904     0.979621   -1192.9314    2061.8051    7322.9681    6937.5418    7922.0612   -2028.4688    374.37101   -336.80119    291.25011 
  147000       147000    292.75126    89584.282    6124.3577     0.979621   -1250.5167    2020.9953    5428.4524    6927.2164    6017.4042   -1495.6259    157.43917    327.45201    292.75126 
  148000       148000    296.32294    89584.282    7705.7682     0.979621   -1191.6762    2119.7495    7467.4056    7405.0601     8244.839   -1639.6343   -7.1949134   -379.58643    296.32294 
  149000       149000     291.7571    89584.282    6718.4044     0.979621    -1173.906    2086.4962    6350.8124    6792.1781    7012.2228    -755.9208    -466.9967    53.490169     291.7571 
  150000       150000    293.91343    89584.282    6387.0069     0.979621   -1254.0715    2030.4278    7064.5688    6590.4502    5506.0018   -1883.9011    159.79143    -346.9422    293.91343 
  151000       151000    293.19446    89584.282     7225.606     0.979621   -1153.7321    2122.7326    8191.7242    6351.0068    7134.0872   -1927.4841     803.9608    431.54153    293.19446 
  152000       152000    292.86127    89584.282    6425.0992     0.979621   -1231.4715    2041.2699    5626.8389    6941.2551    6707.2037   -1256.8978   -473.27107   -373.17312    292.86127 
  153000       153000    292.96374    89584.282    6804.0554     0.979621   -1178.2637    2095.6227    6921.5005    6228.9738    7261.6917   -1279.9164    460.44017   -669.01154    292.96374 
  154000       154000     286.5277    89584.282    6659.9423     0.979621   -1175.3743     2026.589    5847.0509    7805.7547    6327.0213   -1347.4599    380.09789    165.65596     286.5277 
  155000       155000    294.05865    89584.282    7115.8574     0.979621   -1246.7917    2039.3304    7213.5647    6666.8718    7467.1358   -1677.0635    25.674255   -116.87689    294.05865 
  156000       156000    294.54255    89584.282    6935.6469     0.979621   -1184.1245    2107.4053    6628.9807    6894.6799    7283.2802   -1397.4837    112.41289   -765.48563    294.54255 
  157000       157000    296.53995    89584.282    6264.4256     0.979621   -1253.4418    2060.4089    6843.6989    6426.1905    5523.3873    -1580.535   -492.46599    340.34065    296.53995 
  158000       158000    295.04801    89584.282    6950.2646     0.979621    -1212.562    2084.6163    7452.4821     6937.371    6460.9405    -2025.874   -923.68483   -421.37049    295.04801 
  159000       159000    290.57373    89584.282    6856.6383     0.979621   -1225.3724    2021.8055    6019.0515    7671.5243    6879.3392   -1564.8002   -271.63113    734.48822    290.57373 
  160000       160000    287.67834    89584.282     7110.873     0.979621   -1222.6458     1992.176     7187.218    7007.9869    7137.4142   -1722.8496   -625.06356    455.68021    287.67834 
  161000       161000     288.1376    89584.282    6485.7085     0.979621   -1199.0802    2020.8739    6289.9818    6090.1161    7077.0277   -1130.9925    333.06142   -1312.3035     288.1376 
  162000       162000    290.63958    89584.282    6816.3041     0.979621   -1133.8127    2114.1011    7536.4724    6213.7769     6698.663   -925.68393    59.972071   -857.04101    290.63958 
  163000       163000    297.43977    89584.282    6161.7149     0.979621   -1207.7047    2116.2016     5535.929    6508.2822    6440.9334    -1022.608    -311.6935    176.37635    297.43977 
  164000       164000     294.9909    89584.282    7348.2293     0.979621   -1283.8236    2012.7165     6794.897    7844.1201    7405.6708   -809.08089    278.60668   -140.33003     294.9909 
  165000       165000    301.26508    89584.282    7682.2084     0.979621   -1139.2914     2227.363    8418.5823    7108.6914    7519.3515   -648.77604     514.5619    626.23007    301.26508 
  166000       166000    290.01416    89584.282    5968.2078     0.979621    -1238.862    2002.0627    5901.4165    5197.5216    6805.6852   -1366.0554   -706.71696   -312.20481    290.01416 
  167000       167000    290.25275    89584.282    7605.0803     0.979621   -1177.5026    2066.0884    7095.3658    7812.2823    7907.5929    -1387.837    494.52039    70.893123    290.25275 
  168000       168000    295.18396    89584.282    6582.9723     0.979621   -1125.2766     2173.421    7148.2715    6250.6341    6350.0113   -1495.0214    414.97903    685.50367    295.18396 
  169000       169000    290.23031    89584.282    5032.9761     0.979621   -1208.4784    2034.8618    5306.3618    4937.7743    4854.7923   -1207.1277    952.54624    224.63761    290.23031 
  170000       170000    293.78062    89584.282    7064.1746     0.979621   -1138.9273    2144.0878    7203.9525    6720.0997    7268.4715    -2814.224   -958.92399   -561.06525    293.78062 
  171000       171000    289.81647    89584.282    6669.5397     0.979621    -1180.404    2058.3115    6730.7861    7322.6847    5955.1484   -857.70123    597.72134    128.95324    289.81647 
  172000       172000    291.95005    89584.282    6870.6157     0.979621   -1109.1947    2153.3638    7799.8849    5931.7728    6880.1892   -1758.0004   -145.27529    851.46534    291.95005 
  173000       173000    295.44304    89584.282    7123.1429     0.979621   -1200.3666    2101.2262    6799.7549    7321.1534    7248.5203   -1811.9556   -544.11967    261.84631    295.44304 
  174000       174000    292.56248    89584.282    6662.8631     0.979621   -1081.5692    2187.8332    7037.9962    7105.5319     5845.061   -2043.7353    486.90845    910.14899    292.56248 
  175000       175000    293.70993    89584.282    6610.6541     0.979621   -1258.4521    2023.7731    6876.9622    6096.0097    6858.9904   -1534.3552    794.41359   -503.02157    293.70993 
  176000       176000    294.00529    89584.282    8171.6996     0.979621   -1128.8519    2156.6739    7175.2863    8884.2507    8455.5618   -1412.5672   -89.295353    660.08801    294.00529 
  177000       177000    294.75848    89584.282    6783.7959     0.979621   -1169.3731    2124.5696    6745.6381    6988.0753    6617.6744   -1940.1569    385.32716   -640.83497    294.75848 
  178000       178000    297.07802    89584.282    6740.4994     0.979621   -1187.3141    2132.5497     7231.356    6628.1377    6362.0046   -1771.7328    413.92401    118.22211    297.07802 
  179000       179000    294.15218    89584.282    6915.1402     0.979621   -1118.9413     2168.226     6491.823    6693.4329    7560.1648   -2340.6941   -127.83784   -73.808559    294.15218 
  180000       180000    291.43158    89584.282    7353.3794     0.979621   -1173.8325    2082.9319    8373.2407    6933.6154     6753.282   -1866.3241     668.7303    294.59072    291.43158 
  181000       181000    292.45144    89584.282     7329.878     0.979621   -1127.5235     2140.638    7342.4248    8013.3477    6633.8616   -1846.9592    200.86148    543.90419    292.45144 
  182000       182000    289.60001    89584.282    6175.4936     0.979621   -1170.2917    2066.0049    6777.4442    5823.6495    5925.3869   -1627.6045    289.58415    176.14187    289.60001 
  183000       183000    300.23958    89584.282    6630.0244     0.979621   -1181.0815    2174.1129    6957.3798    6396.1965    6536.4971   -942.66836    31.824703    136.37987    300.23958 
  184000       184000    283.21981    89584.282    7071.1862     0.979621   -1128.9967    2036.0008    7475.2816    7016.8851    6721.3918   -1564.8033   -709.47379     389.8271    283.21981 
  185000       185000    294.18903    89584.282    7267.4571     0.979621   -1128.2593    2159.3199    7820.1356     6853.145    7129.0908   -1415.1156    372.08212        421.9    294.18903 
  186000       186000    289.14736    89584.282    6636.5371     0.979621   -1098.9864    2132.2518    7676.9604    6625.9447    5606.7062    -850.1141   -38.335259    252.01099    289.14736 
  187000       187000    296.84772    89584.282    5681.3231     0.979621   -1150.7435    2166.5466    6406.1057    5881.2377    4756.6259   -942.02639    240.64948     132.6708    296.84772 
  188000       188000    293.34111    89584.282    6786.3228     0.979621   -1159.9002    2118.2034    7124.9493     6901.792     6332.227    -2093.624   -50.867124   -774.75416    293.34111 
  189000       189000    288.23766    89584.282    6702.5344     0.979621   -1010.3749    2210.6974    6933.6879    6523.1187    6650.7965   -1324.5186    70.282491    398.69009    288.23766 
  190000       190000    287.25037    89584.282    6934.4357     0.979621   -1154.9109    2055.1283    6656.0054    7210.6964    6936.6053   -1795.3986    519.99256   -130.20379    287.25037 
  191000       191000    296.02195    89584.282    6028.2041     0.979621   -1165.6094    2142.4528     6252.448    5517.4424    6314.7219   -1687.0821   -228.43843    629.16249    296.02195 
  192000       192000    285.84801    89584.282     6914.946     0.979621   -1141.0211    2053.3467    7322.0776    5942.0639    7480.6964   -1495.2177    646.24775    1004.8958    285.84801 
  193000       193000    299.65049    89584.282     7570.955     0.979621   -1147.9378    2200.6735     7321.163    8933.0352    6458.6669   -2142.6033   -533.05633   -668.75772    299.65049 
  194000       194000    294.88402    89584.282    7476.7761     0.979621   -1151.8818    2143.4639    6800.2277    7842.0553    7788.0453   -2127.1998   -30.314141    858.39295    294.88402 
  195000       195000    294.23843    89584.282      7246.28     0.979621   -1143.3672     2144.764     7964.248    6783.3126    6991.2793   -1809.2844    -137.5387   -447.12337    294.23843 
  196000       196000    291.42383    89584.282    6994.9658     0.979621   -1073.8899     2182.788    6863.4116    6746.9772    7374.5087    -890.0131   -219.14454    959.17355    291.42383 
  197000       197000    288.47256    89584.282    6612.4767     0.979621   -1106.1642     2117.533    6590.6174    6357.7072    6889.1055   -1401.4395    -213.0231   -367.53296    288.47256 
  198000       198000    301.19081    89584.282    5875.3291     0.979621   -1172.3584    2193.4661    6168.9652    6139.3533    5317.6687   -784.31872    51.455241   -382.05055    301.19081 
  199000       199000    295.50096    89584.282    6264.1342     0.979621   -1163.8129    2138.4271    5749.5406    7200.0762     5842.786   -1641.0506    844.54373    209.67904    295.50096 
  200000       200000    297.69803    89584.282    6726.8174     0.979621   -1174.8293    2151.9632    6510.5774    7391.3952    6278.4794   -2186.7341   -690.66555     216.3652    297.69803 
  201000       201000    299.54632    89584.282    6671.9279     0.979621    -1158.471    2188.9762    6348.2016    7245.4155    6422.1664    -1612.449   -411.60082   -466.77776    299.54632 
  202000       202000    288.33222    89584.282     6884.235     0.979621   -1151.9148    2070.2142     6788.753    7076.8418    6787.1104   -1166.1175    446.27733   -301.57665    288.33222 
  203000       203000    296.84869    89584.282    6595.1718     0.979621   -1068.8488    2248.4522    5843.8767     6854.887    7086.7519   -1607.6121    139.13813    434.31111    296.84869 
  204000       204000     296.4822    89584.282    6732.7985     0.979621   -1195.8313    2117.3742    7069.7799    6059.9342    7068.6814   -1852.2724   -463.99865   -767.09007     296.4822 
  205000       205000    296.80637    89584.282    7172.9217     0.979621   -1104.6886    2212.1395    6648.7506    7836.9547    7033.0599   -1215.8718    718.32923    724.63053    296.80637 
  206000       206000    292.62147    89584.282     6132.701     0.979621   -1184.6769    2085.3847    5385.1158    7365.1087    5647.8786   -2062.8299   -227.61528    391.20699    292.62147 
  207000       207000    298.07825    89584.282    6273.2041     0.979621   -1135.9006    2195.1408    5759.6472    6507.6785    6552.2867   -1671.6718    607.30325   -344.54184    298.07825 
  208000       208000    292.68529    89584.282    7730.0985     0.979621   -1108.0986    2162.6762    7796.1985    7488.8483    7905.2486   -1925.6233    382.50616    9.2246541    292.68529 
  209000       209000    296.85059    89584.282    7339.2195     0.979621   -1137.0691    2180.2531    7804.4285    6949.2374    7263.9925   -1783.9777    234.61422    387.68422    296.85059 
  210000       210000    289.19456    89584.282     7481.501     0.979621   -1060.7369    2171.0287    7326.2514    8531.3443    6586.9074    -1479.888   -221.54996   -177.87134    289.19456 
  211000       211000    295.47945    89584.282    7137.5616     0.979621    -1100.753    2201.2467    7026.8946    6931.1572    7454.6329   -1735.2388     582.8097     753.1831    295.47945 
  212000       212000    298.01665    89584.282    7284.1723     0.979621   -1121.9742    2208.3789    6563.9922     7853.097    7435.4278   -1941.4029    647.96401   -423.90504    298.01665 
  213000       213000    297.23747    89584.282    6887.8669     0.979621   -1077.6977    2243.9479    6577.9309    6720.1588     7365.511   -991.30014   -356.28245    209.24195    297.23747 
  214000       214000     285.4298    89584.282    7308.6023     0.979621   -1141.5957    2048.0986    7780.8003    7129.1749    7015.8316   -2004.3928   -14.635916   -505.47163     285.4298 
  215000       215000    300.23243    89584.282    7551.8911     0.979621   -1029.2875     2325.827     6676.066    7670.4178    8309.1896   -1954.1082    650.45869    588.53709    300.23243 
  216000       216000    290.48392    89584.282     6020.849     0.979621    -1134.337    2111.8373    5314.8045    6625.4973    6122.2451   -1322.6323   -183.85569    171.92454    290.48392 
  217000       217000    292.23071    89584.282    6723.1855     0.979621   -1157.3117    2108.3831    6986.3782    6116.0391    7067.1392   -1123.8887   -438.26504   -134.09614    292.23071 
  218000       218000    296.35533    89584.282    6696.6486     0.979621    -1061.313    2250.4746    6953.5935    7650.5366    5485.8156   -747.10603   -294.73545    618.12445    296.35533 
  219000       219000    294.85548    89584.282    6428.9496     0.979621   -1100.0547     2194.972    6966.0401    6871.5123    5449.2965   -2406.3753    311.83789   -480.91214    294.85548 
  220000       220000    287.44917    89584.282    6472.6255     0.979621   -1093.4022    2118.8586    6033.4896    7224.1368    6160.2503   -534.87552   -224.41035    188.51878    287.44917 
  221000       221000    292.81641    89584.282    6693.5856     0.979621   -1118.3831     2153.857    6175.5719    6976.4851    6928.6996   -1410.2315   -183.09402   -55.088615    292.81641 
  222000       222000    293.95398    89584.282    7053.8486     0.979621   -1036.5338    2248.4186    7450.7408    6435.2146    7275.5903   -1330.3488    790.35242   -183.48173    293.95398 
  223000       223000    289.52832    89584.282    7256.0891     0.979621   -1159.4783    2076.0171    6872.1524    7607.0386    7289.0764   -1471.6343   -430.49933   -632.76873    289.52832 
  224000       224000    293.20896    89584.282    6987.2639     0.979621   -1023.3439     2253.283    6586.0399    7377.6091    6998.1429   -1507.5833   -152.37109   -5.9578923    293.20896 
  225000       225000    292.45645    89584.282    7501.4733     0.979621    -1091.553    2176.6645    8372.9738    6355.3752    7776.0708   -1539.6274   -9.7476194    96.212376    292.45645 
  226000       226000    294.04771    89584.282    7775.7995     0.979621    -1175.135    2110.8649    8867.1172    6888.8253    7571.4561   -1711.1433   -470.59005    158.32249    294.04771 
  227000       227000    295.53605    89584.282     6698.332     0.979621   -1072.1111     2230.521    6661.7531    6289.9216    7143.3214   -1461.6214    347.93109   -628.78017    295.53605 
  228000       228000    295.31594    89584.282    6020.8896     0.979621   -1097.9313    2202.2411    6478.8103     6326.949    5256.9096    -1556.966    53.931643   -97.594532    295.31594 
  229000       229000    294.14022    89584.282    6768.0557     0.979621   -1153.2498     2133.784    5746.2061    6433.8878    8124.0733   -1633.4832    210.67296    424.29508    294.14022 
  230000       230000     286.6704    89584.282    7011.8981     0.979621   -1051.8255    2151.7325    7380.0789    6839.9057    6815.7098   -1366.7621    819.77331   -264.99798     286.6704 
  231000       231000    291.14323    89584.282    7691.9446     0.979621   -1047.1781     2206.364    6807.6301    7522.2793    8745.9244   -1108.9062   -226.39818   -484.52968    291.14323 
  232000       232000    291.22241    89584.282    6755.1899     0.979621   -1058.4716    2195.9553    6675.7271    6686.8558    6902.9869   -2020.3948   -376.54037   -462.64973    291.22241 
  233000       233000    292.57586    89584.282     6834.817     0.979621   -1050.7481    2218.8038    5786.6315    7086.2424    7631.5769   -1041.0697    -136.3978    294.04978    292.57586 
  234000       234000    297.44305    89584.282    6764.4201     0.979621   -1069.8399    2254.1031    6509.3276     6775.585    7008.3476   -1310.0198     405.3066   -45.727777    297.44305 
  235000       235000    288.30166    89584.282    6967.9528     0.979621    -1142.587    2079.2004    7446.1663    6843.8001     6613.892   -1001.9255   -533.82828     750.9407    288.30166 
  236000       236000     294.0252    89584.282    6497.5039     0.979621   -971.72277    2314.0256    5829.8483    6524.3696    7138.2937   -1739.7694   -429.83011    362.82019     294.0252 
  237000       237000    295.11774    89584.282    6773.5297     0.979621   -1141.5275      2156.43     7010.946    7241.9969     6067.646   -883.68206    -46.97698   -123.06884    295.11774 
  238000       238000     301.0023    89584.282    6164.8477     0.979621   -1081.3317    2282.3861    6710.1186     6381.124    5403.3004   -1612.5923   -157.62506   -558.39265     301.0023 
  239000       239000    291.69443    89584.282    6873.0972     0.979621   -1098.7087    2160.9931    7044.7781     6845.244    6729.2694   -1228.4018    128.83029   -624.95283    291.69443 
  240000       240000    293.29718    89584.282     7066.305     0.979621   -1096.4269    2181.1859    7172.0256    6711.3249    7315.5645   -1284.1496    287.72684    770.14556    293.29718 
  241000       241000    291.04682    89584.282    7012.4515     0.979621   -1153.5587    2098.9061     7060.264    7287.3196    6689.7709   -1018.4821    -356.5031   -285.16737    291.04682 
  242000       242000    293.12684    89584.282    6979.0326     0.979621   -1007.3534    2268.3557    7172.2023    5584.9526    8179.9431   -1083.8147   -46.032313   -329.78254    293.12684 
  243000       243000    297.72584    89584.282    6347.0351     0.979621   -1160.0666    2167.0367    6161.6717    6467.2771    6412.1563   -2186.9805   -211.21185   -408.82458    297.72584 
  244000       244000    296.12651    89584.282    6340.3416     0.979621   -1023.6333    2285.5973    7300.7395    5814.9241    5905.3612   -1992.3618    141.21436   -122.24303    296.12651 
  245000       245000    289.37686    89584.282    7689.7037     0.979621   -1072.4958    2161.3071    6652.2605    8432.8819    7983.9688   -1037.9217   -291.21828    11.684505    289.37686 
  246000       246000     291.1166    89584.282    6226.6331     0.979621   -1127.0082    2126.2364    6282.9178    6102.9755    6294.0058   -1467.4787    640.49214    482.09036     291.1166 
  247000       247000    296.07802    89584.282    6040.9921     0.979621   -1069.8338    2238.8549    5645.3323    6516.4505    5961.1935   -1982.2091   -336.01321    698.32401    296.07802 
  248000       248000    294.48849    89584.282    6717.6082     0.979621   -1111.5064    2179.4192     6214.049     6615.683    7323.0927   -1615.3428    73.567383   -169.24148    294.48849 
  249000       249000    295.58772    89584.282         7337     0.979621    -1041.647    2261.5625    8054.0832    6529.3045    7427.6124   -1497.5312   -684.53245    25.968563    295.58772 
  250000       250000    284.08775    89584.282    6898.2993     0.979621   -1131.7247     2042.972     6295.768    7460.0459    6939.0841   -1649.7937     167.1012    22.477974    284.08775 
  251000       251000    297.91102    89584.282    6735.7025     0.979621   -1064.4486     2264.724    6646.6196    6453.8997    7106.5882   -1436.8536   -1276.2186   -657.76741    297.91102 
  252000       252000     293.4555    89584.282    7120.2918     0.979621   -1047.0832    2232.2987    7486.8979    7244.6806     6629.297   -1178.1699   -199.41235    607.21741     293.4555 
  253000       253000    294.74627    89584.282    7734.5869     0.979621   -1078.4297    2215.3767    8346.4856    6974.9535    7882.3216   -2147.6069   -199.87498    352.76629    294.74627 
  254000       254000     293.4123    89584.282    6911.5476     0.979621   -1077.7654    2201.1338    6519.6592    6563.6444    7651.3391   -1084.7001    199.54708   -410.29536     293.4123 
  255000       255000    296.70816    89584.282    5811.8157     0.979621   -1052.8343    2262.8963    5329.2295    6109.7308     5996.487   -1713.2388   -258.28066   -557.00569    296.70816 
  256000       256000    293.05257    89584.282    6671.9227     0.979621   -1093.7223    2181.1568    7082.8694    6600.3461    6332.5526   -1449.1189     49.04112   -54.776292    293.05257 
  257000       257000    293.45271    89584.282    7689.3499     0.979621   -1053.9436    2225.4071    7797.9704    7667.4839    7602.5955   -1466.7584    188.41615    390.61444    293.45271 
  258000       258000    289.31074    89584.282    5798.8208     0.979621   -1105.2051    2127.8589    6121.7184    6331.5228    4943.2213   -1360.6549   -4.3462212    230.39271    289.31074 
  259000       259000    293.55966    89584.282    6944.9381     0.979621   -953.66949    2326.8764    7579.4048    6132.4179    7122.9917   -1410.9697   -1625.5241     554.1349    293.55966 
  260000       260000    293.34657    89584.282    6895.0392     0.979621   -1248.2307    2029.9339    6584.4855    7146.8756    6953.7566   -1187.2195   -751.42509   -869.78326    293.34657 
  261000       261000    293.06344    89584.282    6786.8218     0.979621   -970.63018    2304.3704     7179.226    6530.2078    6651.0315    -1286.772    235.28613    369.94278    293.06344 
  262000       262000    294.70924    89584.282     7889.313     0.979621   -1107.0843    2186.3083    8251.2493    8237.9142    7178.7755   -1212.9796   -95.863696    670.03024    294.70924 
  263000       263000    294.53008    89584.282    6525.5573     0.979621   -1057.0841    2234.3063    6668.6251    6383.9816    6524.0652   -2500.7861   -1213.5679    197.14826    294.53008 
  264000       264000    290.57044    89584.282    6299.5111     0.979621   -1066.3897    2180.7515     5368.728    6775.6775    6754.1277   -1700.1789    1160.6869   -350.95999    290.57044 
  265000       265000    286.40821    89584.282    6905.3273     0.979621   -1013.9711    2186.6569    6481.6032      6159.97    8074.4088   -808.73773   -967.07181    352.22197    286.40821 
  266000       266000    299.61598    89584.282     6709.017     0.979621   -1055.8857    2292.3399    7069.5003    7045.8166    6011.7341   -1300.3471   -713.52213   -263.12738    299.61598 
  267000       267000     288.5846    89584.282    6257.9232     0.979621   -1073.0299    2151.9194    5787.1677    5871.6933    7114.9084   -1546.6931   -628.60716    -832.2307     288.5846 
  268000       268000    289.46124    89584.282    7530.8105     0.979621   -998.14348    2236.6023    7169.2211    7540.4644    7882.7462   -1470.8611    124.69674   -614.98049    289.46124 
  269000       269000    293.19186    89584.282     6910.706     0.979621   -1116.6072    2159.8284    7200.5775    5956.5436    7574.9971   -1811.7531   -562.37821    135.16394    293.19186 
  270000       270000    298.87571    89584.282     6619.096     0.979621   -1040.6023    2299.3507    6118.1815    5741.8829    7997.2236   -1784.3695   -236.06207   -433.12176    298.87571 
  271000       271000    284.18641    89584.282    7945.7254     0.979621   -1078.2734     2097.526    7536.6655     8950.601    7349.9099   -1533.8238    32.190998    84.654242    284.18641 
  272000       272000    285.18337    89584.282    7593.2149     0.979621   -1078.4793     2108.461      7266.71    7599.1342    7913.8006   -1287.8435    978.36873   -260.29878    285.18337 
  273000       273000    291.65079    89584.282    6491.0167     0.979621   -937.85977    2321.3544    7466.2648    5591.9183    6414.8671   -1329.6716   -407.52734    751.40647    291.65079 
  274000       274000    292.72028    89584.282     5949.314     0.979621   -1133.9346    2137.2311    6048.0538    5223.6485    6576.2397   -1178.3191   -395.37763     10.83845    292.72028 
  275000       275000    295.65788    89584.282    6354.2542     0.979621   -1103.9877    2200.0059    6779.3786    6455.2178    5828.1662   -1793.8793   -968.00752   -207.92714    295.65788 
  276000       276000    292.41635    89584.282    6856.7033     0.979621   -1015.1597    2252.6097    6579.4289     7370.161      6620.52   -1292.3583    149.54545   -125.29481    292.41635 
  277000       277000    288.58251    89584.282    7035.4929     0.979621    -1044.002     2180.924    7437.5683    6997.9573     6670.953   -733.94844   -20.328788    353.05473    288.58251 
  278000       278000    295.81976    89584.282    7412.8236     0.979621   -1070.4063    2235.3963    7332.8524    7735.0315     7170.587   -790.28255    155.89145    191.79605    295.81976 
  279000       279000    294.34139    89584.282    6335.6526     0.979621   -1097.5528    2191.7289    6996.2992    6492.7597    5517.8989   -2384.8201   -514.43863    108.64312    294.34139 
  280000       280000    293.85616    89584.282    7545.3882     0.979621   -1062.4154    2221.4439    8255.0971    7073.2187    7307.8487   -859.00394   -110.21663    54.566347    293.85616 
  281000       281000    294.10333    89584.282    7689.7583     0.979621   -972.19196    2314.4295    7828.4967    7932.4879    7308.2902   -580.62899    153.34566   -55.639389    294.10333 
  282000       282000    290.27829    89584.282    7271.5154     0.979621   -1157.7133     2086.163    7770.6117    6611.8342    7432.1001   -1825.6306   -909.73376   -34.837654    290.27829 
  283000       283000    301.81801    89584.282    7379.4654     0.979621   -1012.8231    2360.0104    7427.6248    7117.2577    7593.5137   -788.91778   -55.688534    289.89461    301.81801 
  284000       284000    292.49944    89584.282    7040.1204     0.979621   -1120.2186    2148.4793    8113.4783    6768.0296    6238.8532   -1349.2237    64.254799   -604.18173    292.49944 
  285000       285000    287.15711    89584.282     6967.288     0.979621   -1050.3114    2158.6857    6327.1857    7362.0763    7212.6018   -1445.9857    189.18236    10.607593    287.15711 
  286000       286000    294.53673    89584.282    7169.5055     0.979621   -1017.7118     2273.753     7035.259    7146.2359    7327.0217   -1476.1538   -59.509893     130.5148    294.53673 
  287000       287000    285.40934    89584.282    6701.4187     0.979621      -1088.6    2100.8656    7387.5368    5980.6773    6736.0419   -1348.1691   -402.89794   -402.19276    285.40934 
  288000       288000      296.768    89584.282    7731.6677     0.979621   -1012.7681    2303.6312    8364.6154    7763.7207    7066.6671   -1920.4753   -565.90364   -801.60928      296.768 
  289000       289000    287.08658    89584.282    6847.0163     0.979621   -1042.6367    2165.5722    7440.4389    6920.7137    6179.8962   -1275.0424     -740.199    15.449636    287.08658 
  290000       290000    301.91049    89584.282       6451.2     0.979621   -1110.8323    2263.0347    5879.4272    7332.3331    6141.8396   -633.89658   -70.688973   -65.511866    301.91049 
  291000       291000    291.32992    89584.282    7177.8533     0.979621   -1001.6971    2253.9313    6356.6371    6886.9501    8289.9725   -1834.5861     6.750318   -337.02146    291.32992 
  292000       292000    293.31141    89584.282    6883.5949     0.979621   -1078.1497     2199.622    5980.4106    7524.8583    7145.5158   -1581.8407   -298.63779   -573.86413    293.31141 
  293000       293000    295.70544    89584.282    7091.5447     0.979621   -1040.1978    2264.3273    7453.3837    7052.3373    6768.9132   -1026.6727    97.732586   -128.41886    295.70544 
  294000       294000    288.84506    89584.282    7285.3426     0.979621    -1122.588    2105.2719    7363.2756    7625.0541    6867.6983   -2011.0518   -207.66942    628.20264    288.84506 
  295000       295000    295.26057    89584.282     7837.751     0.979621   -1022.8394    2276.7143    7695.2541    7085.9381    8732.0607   -754.12856    8.6333109    276.04287    295.26057 
  296000       296000     295.1675    89584.282    7579.3845     0.979621   -1023.2794    2275.2342    6919.7278    7818.8006    7999.6252   -1106.8617    142.08336    790.57009     295.1675 
  297000       297000    291.57348    89584.282    6976.4803     0.979621   -1009.3536    2248.9966    7797.7639    6259.2347    6872.4421   -1645.0193     435.3626    267.19537    291.57348 
  298000       298000    295.64402    89584.282    7151.8873     0.979621   -1035.8182    2268.0206     7468.955    6003.3618    7983.3449   -2128.7077   -1156.7941    533.77595    295.64402 
  299000       299000    286.36356    89584.282    7529.4063     0.979621   -1023.3362    2176.7928    7640.7246    7623.1489    7324.3453   -1634.4222   -40.903269   -183.29489    286.36356 
  300000       300000    289.10292    89584.282    6851.0498     0.979621   -996.47105    2234.2705    7299.8441      7579.34    5673.9653   -1568.7183   -1112.1409    290.01401    289.10292 
  301000       301000    293.30529    89584.282    6911.8395     0.979621   -1078.6455    2199.0578    7075.8292    6882.3428    6777.3464   -836.62617   -1313.1321   -28.246505    293.30529 
  302000       302000    294.71727    89584.282    6875.7103     0.979621   -995.08402    2298.3982    6465.9481    6872.0555    7289.1273   -1296.6169   -200.49943    477.39969    294.71727 
  303000       303000    296.78389    89584.282    7238.6907     0.979621   -1032.1503    2284.4266    7620.8363    7238.0415    6857.1944   -446.18242   -1014.3412    661.17558    296.78389 
  304000       304000    289.85455    89584.282    7018.8815     0.979621   -1024.3515    2214.7896    8087.9532    6750.0804    6218.6109   -951.46914   -227.56419    390.21734    289.85455 
  305000       305000    299.40386    89584.282    5173.2958     0.979621   -1049.5379    2296.3173    5154.3537    5083.2545    5282.2791   -1478.0895   -640.54827   -492.49985    299.40386 
  306000       306000    294.18809    89584.282    7136.7709     0.979621   -1032.5431    2255.0256    7738.4755    7026.8488    6644.9885   -2375.3821   -64.918131   -299.02725    294.18809 
  307000       307000    299.50422    89584.282     7495.264     0.979621   -1018.1792    2328.7975    7798.6419    6669.8875    8017.2625   -1735.0047   -510.39551   -329.78099    299.50422 
  308000       308000     281.5908    89584.282    7211.4593     0.979621   -924.00755    2222.7857    7403.3515     7048.528    7182.4985   -644.93063   -336.00155    41.267316     281.5908 
  309000       309000    293.52773    89584.282    6919.1813     0.979621   -985.55011     2294.639    6626.7289    6862.6871    7268.1279    -536.2649   -1211.2551    758.04421    293.52773 
  310000       310000    297.41244    89584.282    7267.1626     0.979621   -1063.2087    2260.3922    7276.7465    7395.5023    7129.2391   -1442.8952   -163.46968   -338.26134    297.41244 
  311000       311000    289.60763    89584.282    6745.9425     0.979621   -907.36221    2329.0195    7396.4438    6435.4877    6405.8962   -1147.8549   -567.97841    800.68371    289.60763 
  312000       312000    291.08064    89584.282    6350.2577     0.979621   -996.88033    2255.9624    6698.3705    6072.4249    6279.9779   -846.68403    -325.3444    85.795012    291.08064 
  313000       313000    296.05157    89584.282    6196.4716     0.979621   -988.12345    2320.2697    5788.7819    6451.3711    6349.2619   -1264.3002    228.69232    153.22785    296.05157 
  314000       314000    296.16746    89584.282    6869.6748     0.979621   -1029.2552     2280.433    7622.1827    6692.5505    6294.2911   -2576.9089   -59.688301   -359.94614    296.16746 
  315000       315000    288.52295    89584.282    7029.1058     0.979621   -1014.9097    2209.3507    7584.1215      6592.82     6910.376   -995.49656   -706.85646   -29.674779    288.52295 
  316000       316000    295.02232    89584.282    7275.2609     0.979621   -991.86554    2305.0257     7896.614    7252.9763    6676.1924   -1925.1325    205.62333   -207.32979    295.02232 
  317000       317000    297.51665    89584.282    7008.9902     0.979621   -1009.6834     2315.082    7917.6438    7211.7205    5897.6061   -2012.7352    45.926716    187.69607    297.51665 
  318000       318000    289.71349    89584.282    7264.7316     0.979621   -1019.8054    2217.7593    6838.4181    7446.2902    7509.4865    -1442.995   -930.33699   -460.55998    289.71349 
  319000       319000    297.39135    89584.282    6949.6717     0.979621   -988.89394    2334.4713    7511.6866    6654.5403    6682.7882    -1466.007    318.58028   -122.10032    297.39135 
  320000       320000    295.07836    89584.282    8113.5108     0.979621    -1077.628    2219.8895    9125.0875    7678.0662    7537.3788   -1027.6061   -333.15585    269.67029    295.07836 
  321000       321000    295.04768    89584.282    5967.7903     0.979621   -1070.8747    2226.2999    6160.3922    6172.1411    5570.8376   -1716.6128    637.05117    394.18993    295.04768 
  322000       322000    292.10189    89584.282    6485.9903     0.979621   -1015.8318    2248.4235    6731.7776    6159.4146    6566.7787   -1785.3558   -577.42587    155.94546    292.10189 
  323000       323000    290.58715    89584.282    6385.2018     0.979621    -1032.379    2214.9488    5905.2318    6458.5747    6791.7989   -1684.1851    344.12276    37.749269    290.58715 
  324000       324000    299.13281    89584.282    7909.2018     0.979621   -952.78226    2390.0439    8436.0213    7776.2316    7515.3526   -1099.0999   -5.5343744    366.81136    299.13281 
  325000       325000    295.15172    89584.282    7628.7046     0.979621   -1034.9161    2263.4211    7486.3531    7754.6267    7645.1341   -2087.4618   -645.66799   -259.91688    295.15172 
  326000       326000    290.77178    89584.282    6720.7081     0.979621   -1028.1111    2221.2802    6482.5298    6991.9222    6687.6721     -2034.98   -650.40331    631.67077    290.77178 
  327000       327000    294.90255    89584.282    6873.2023     0.979621   -935.87126    2359.6815    7207.2918    7318.6173    6093.6978   -775.64282   -522.83809   -48.177497    294.90255 
  328000       328000    291.46776    89584.282    7460.0285     0.979621   -1010.3339    2246.8349    8138.2893    7701.4799    6540.3162   -1771.1481   -17.631206    82.614149    291.46776 
  329000       329000    300.54706    89584.282    7122.5379     0.979621   -1004.4782    2354.1523    7647.7575    6678.4226    7041.4338    -1479.487    267.31502   -393.42712    300.54706 
  330000       330000    297.01782    89584.282    6459.3369     0.979621   -1023.9588    2295.2322    6572.7586      6471.24     6334.012   -1716.3766    473.39506    589.40921    297.01782 
  331000       331000    290.73448    89584.282    7232.2203     0.979621   -1035.8153     2213.159    7701.9831    6655.7273    7338.9504   -1727.6418   -790.85985   -130.88533    290.73448 
  332000       332000    295.93665    89584.282    7383.6757     0.979621   -936.15767    2370.9512    7287.4647    7530.7709    7332.7915   -1909.9438   -401.91134     447.0647    295.93665 
  333000       333000    289.28517    89584.282     6776.356     0.979621    -949.7268    2283.0514    6562.7339    6106.9179    7659.4163   -1626.9818    59.049501    528.31273    289.28517 
  334000       334000    290.45873    89584.282    7377.0241     0.979621   -1036.5084    2209.3844    7900.4449    7010.5276    7220.0998   -973.37776    263.65664    161.61699    290.45873 
  335000       335000    297.56511    89584.282    7565.2587     0.979621   -956.84777    2368.4593    8693.4494    7227.4977    6774.8289    -1847.899    -877.2457    574.43195    297.56511 
  336000       336000    295.20936    89584.282     7110.664     0.979621    -994.7545    2304.2269    6909.8961    7690.7571    6731.3389   -1459.1653   -193.66263   -118.48623    295.20936 
  337000       337000    292.27137    89584.282     7366.832     0.979621   -1000.5191    2265.6301    7318.1558    7705.1094    7077.2308   -2185.3108   -430.63577   -258.99221    292.27137 
  338000       338000    288.97408    89584.282    6666.1332     0.979621   -987.63654    2241.6653    7053.8143    7085.1634    5859.4217   -1523.9564    394.33049    706.52314    288.97408 
  339000       339000    294.33586    89584.282    7175.7762     0.979621   -916.10382    2373.1162    7326.9553    6966.0826    7234.2905    -608.4635   -323.02459    730.09535    294.33586 
  340000       340000    293.49704    89584.282    7200.6403     0.979621   -956.99729    2322.8488    7752.7386    6713.6667    7135.5157   -1125.8309   -264.79286    468.39972    293.49704 
  341000       341000     290.0913    89584.282    7697.5526     0.979621   -982.39701    2259.3898    6983.0989    8597.5248     7512.034   -1577.9155   -185.41139    14.084252     290.0913 
  342000       342000    294.85156    89584.282    6288.2828     0.979621    -905.1617    2389.8212    7048.3933    6419.1544    5397.3006   -2169.0902    198.57513    404.51641    294.85156 
  343000       343000    288.69074    89584.282    6821.0339     0.979621   -920.31397    2305.8215    7344.6182    6732.4029    6386.0805   -1279.3713    127.42275    37.154762    288.69074 
  344000       344000    298.38627    89584.282    6953.1265     0.979621   -961.45866    2373.0249    7154.9654    7582.1129    6122.3011   -1911.3805   -315.11102    643.13703    298.38627 
  345000       345000    295.21362    89584.282    6792.8721     0.979621   -949.86607     2349.163    6402.4648    6678.0707     7298.081   -1233.9022   -539.08778   -824.12065    295.21362 
  346000       346000    290.60501    89584.282    7410.0057     0.979621   -975.74473    2271.7828    7512.9827    7458.2482    7258.7862    -2165.456    26.964085    115.90871    290.60501 
  347000       347000     297.9768    89584.282    6673.4675     0.979621   -945.05397    2384.8537    7251.6391    5957.6315    6811.1319   -2375.2089   -258.47414    0.7291829     297.9768 
  348000       348000    289.70263    89584.282     7118.459     0.979621   -996.41008    2241.0333    7025.0355    7460.2651    6870.0763   -1919.3572   -157.64057   -692.00403    289.70263 
  349000       349000    295.93934    89584.282    6309.8285     0.979621   -948.48865    2358.6503    6396.1698    6723.5719    5809.7439   -2439.8702   -79.569681   -37.225931    295.93934 
  350000       350000    303.62181    89584.282    7574.1162     0.979621   -946.62368    2446.3673    7265.2216      7504.77    7952.3569   -952.01728   -477.86787    328.30618    303.62181 
  351000       351000    293.72172    89584.282    8017.2853     0.979621   -996.86071    2285.4963    8124.7928    8249.2111    7677.8519   -1425.2257    94.759846    670.65745    293.72172 
  352000       352000    294.65843    89584.282    7404.6676     0.979621   -879.53493    2413.2898    7410.0824    7269.8775    7534.0431   -1039.4984    -157.7524   -53.210374    294.65843 
  353000       353000    295.49906    89584.282    7266.4831     0.979621   -940.46661    2361.7522    7535.5166     7952.494    6311.4388   -2285.4103   -548.43381    290.01007    295.49906 
  354000       354000    291.76422    89584.282    7274.4127     0.979621   -951.38651    2309.0953    7134.4011    7625.2942    7063.5427   -1113.6084     1253.616     746.3125    291.76422 
  355000       355000    298.13424    89584.282    7395.0827     0.979621   -841.62912     2490.038    7311.1541    8030.2737    6843.8204   -1936.1782    80.068271   -182.72811    298.13424 
  356000       356000    291.75587    89584.282    7642.2813     0.979621   -1026.8068    2233.5817    7315.4283    8059.7206     7551.695   -1461.0154   -355.47777    590.89374    291.75587 
  357000       357000    293.73618    89584.282    7863.4961     0.979621   -931.37981    2351.1387     7412.816    8733.4571    7444.2151   -1032.2699    183.92623     108.4262    293.73618 
  358000       358000    298.23149    89584.282    7567.2539     0.979621   -961.28754    2371.4664    6626.3369    8797.1055    7278.3194   -1132.9598    79.726757    285.92246    298.23149 
  359000       359000     292.2659    89584.282    6254.5584     0.979621   -941.46075    2324.6273    6033.8208    6812.4662    5917.3884   -1891.9903   -40.391104    58.313294     292.2659 
  360000       360000    297.66954    89584.282    6726.1548     0.979621    -904.3924    2422.0816    7394.5994    6329.7917    6454.0732   -1776.0561   -685.40288   -245.31125    297.66954 
  361000       361000    289.73411    89584.282    5994.8113     0.979621   -958.07076    2279.7244    6222.9343    6303.9374     5457.562   -440.22248   -262.46363     112.7814    289.73411 
  362000       362000      288.624    89584.282    6586.6508     0.979621   -857.95949    2367.4301    6452.4526    5684.5921    7622.9078   -2329.2262   -512.06769   -739.07508      288.624 
  363000       363000    287.15562    89584.282    7538.0399     0.979621   -908.03897    2300.9414    7114.1798    8539.7827    6960.1572   -1031.1638    -914.7194   -1081.9762    287.15562 
  364000       364000    294.85619    89584.282    7275.7413     0.979621   -903.56236    2391.4723    7297.0335    7653.8613    6876.3292   -1620.3797     420.0185    18.884213    294.85619 
  365000       365000    291.73211    89584.282    5870.8713     0.979621   -1036.8234    2223.2995    5090.5489    6904.2365    5617.8285   -1106.8295   -210.70291   -215.78907    291.73211 
  366000       366000     294.0729    89584.282    6760.2968     0.979621   -880.06346     2406.218    6789.9501     7021.352    6469.5882   -2244.1974    283.23802    3.6332302     294.0729 
  367000       367000    294.34132    89584.282    7780.8829     0.979621   -1008.3347    2280.9463    7765.2538    7536.0621    8041.3327    -1212.497   -736.65587    696.86132    294.34132 
  368000       368000     297.3572    89584.282    7833.0037     0.979621   -889.58152    2433.4021    7471.5025    8263.5195    7763.9891   -1650.1609     161.6929   -344.16475     297.3572 
  369000       369000    290.61919    89584.282    7473.3748     0.979621   -977.91295     2269.773    7591.1416    7966.4726    6862.5101   -1316.5849   -146.36463    453.73101    290.61919 
  370000       370000    293.81805    89584.282    7518.2927     0.979621   -942.94101    2340.4924    8079.7762    6768.4766    7706.6253   -1348.9078   -318.07761    168.07037    293.81805 
  371000       371000    294.20989    89584.282    6932.2143     0.979621   -883.75277    2404.0595    6996.7618    7665.1473    6134.7339   -1812.5962   -204.55889      265.731    294.20989 
  372000       372000    291.09591    89584.282    7188.2086     0.979621   -962.57068    2290.4427    7033.4254    7507.1593    7024.0412   -1455.6865   -720.58114   -607.60435    291.09591 
  373000       373000    298.16663    89584.282    6992.8225     0.979621   -972.50674    2359.5223    7647.9925    7764.5394    5565.9356   -1249.7648   -439.57918    407.14538    298.16663 
  374000       374000    289.90773    89584.282    6580.1225     0.979621   -948.03117    2291.7042    6450.9995    6853.2953    6436.0728   -1256.1644    595.60043   -12.983241    289.90773 
  375000       375000    293.29206    89584.282    6692.9987     0.979621   -892.53108    2385.0244    6919.8463    6647.0482    6512.1016   -2230.7747    375.27224   -755.75115    293.29206 
  376000       376000     290.6379    89584.282    7618.0084     0.979621   -961.19141    2286.7037    6912.1231    8194.7581    7747.1441   -1016.5552   -524.35828    685.79885     290.6379 
  377000       377000    292.89431    89584.282    6755.8684     0.979621   -937.46935    2335.6412    6787.5607    6507.2871    6972.7573   -1254.5926   -13.901825    -312.4156    292.89431 
  378000       378000    292.18414    89584.282    6828.7641     0.979621   -967.83346     2297.341    6081.9433    6944.2741    7460.0749   -1946.3679   -346.81607    90.806941    292.18414 
  379000       379000    291.32036    89584.282     5842.132     0.979621   -953.38241    2302.1392    5349.4079    6826.9089    5350.0793   -1425.4211    92.302692   -92.306235    291.32036 
  380000       380000    300.05964    89584.282    6825.6372     0.979621   -947.11065    2406.0729    6702.0623     6964.571    6810.2783   -1968.9838   -119.96138    451.88425    300.05964 
  381000       381000    291.13291    89584.282    6933.4928     0.979621    -1010.467    2242.9598    6400.7182    7474.8891    6924.8711   -1508.8111    212.48356    56.977086    291.13291 
  382000       382000    296.49084    89584.282    6533.2409     0.979621   -917.66032    2395.6416     6916.114    6544.1721    6139.4366   -1714.7293   -239.99652    194.77069    296.49084 
  383000       383000    290.15041    89584.282    7128.7983     0.979621   -929.08459    2313.3627    6887.6617    7787.6528    6711.0806    -818.3025   -27.468296    180.02131    290.15041 
  384000       384000    292.55904    89584.282    7232.3221     0.979621   -875.13861    2394.2254    7061.5723    8016.3596    6619.0345   -1482.5337    87.918775   -895.75337    292.55904 
  385000       385000    295.24236    89584.282    7349.8363     0.979621   -1010.9294    2288.4208    6047.8577    8429.6853    7571.9659   -1100.4111    483.23224    376.95505    295.24236 
  386000       386000    291.63825    89584.282     6312.992     0.979621   -954.26849    2304.8055    5995.3861    5622.7943    7320.7956   -1537.2894    277.74578   -507.81622    291.63825 
  387000       387000    295.05273    89584.282     6817.208     0.979621   -991.67126    2305.5598    6548.7377    7161.4491    6741.4374   -833.17838    432.13228   -562.87957    295.05273 
  388000       388000     293.8078    89584.282    7651.6253     0.979621   -941.90071    2341.4182    6989.5829    9610.5756    6354.7175   -1358.2675    117.42612   -274.54999     293.8078 
  389000       389000    291.68587    89584.282    6808.1692     0.979621   -1038.8808    2220.7254    6582.8261    7008.9624     6832.719   -2177.4689   -199.89003    75.062381    291.68587 
  390000       390000    289.66224    89584.282    7519.0059     0.979621   -901.58509    2335.4069    8026.4139    6842.3916    7688.2121   -936.80209    1041.6951    554.90661    289.66224 
  391000       391000    298.52123    89584.282    6979.5724     0.979621   -993.68292    2342.3088     6332.644     7683.202    6922.8711   -2166.5376   -74.800106   -164.38264    298.52123 
  392000       392000    289.58977    89584.282    6552.8185     0.979621   -938.83154    2297.3506    6465.9101    6945.7068    6246.8386    -2087.029    731.63849    176.70375    289.58977 
  393000       393000    296.59097    89584.282     7330.049     0.979621   -938.60305    2375.8179    6461.2565     8129.442    7399.4484   -1340.7133    7.9384427   -267.12834    296.59097 
  394000       394000    293.66655    89584.282    7076.8346     0.979621    -926.7997    2354.9407     5919.734    8311.4969    6999.2729   -857.48447   -560.77608    755.98886    293.66655 
  395000       395000    291.63663    89584.282     7549.467     0.979621   -989.13397     2269.922    6835.8521    8006.3434    7806.2054   -1424.0848   -751.79152   -345.15749    291.63663 
  396000       396000    301.72713    89584.282    6818.1643     0.979621   -948.25872    2423.5591    7203.7446      6833.43    6417.3183   -1474.8111    932.81197   -38.810378    301.72713 
  397000       397000    296.60601    89584.282    6811.6122     0.979621   -971.54725    2343.0418    7051.2411    6350.4394    7033.1562   -714.42512    882.14519    488.51276    296.60601 
  398000       398000    291.20768    89584.282    6449.6764     0.979621    -973.8438    2280.4186    7201.3316    5969.7889    6177.9087   -2087.6575    88.678872    60.627271    291.20768 
  399000       399000    294.01996    89584.282    7871.0622     0.979621   -911.75114    2373.9386    8226.5872    8209.1763    7177.4231    -1761.672    89.854147   -250.62667    294.01996 
  400000       400000    288.13065    89584.282    6808.6516     0.979621   -965.86032    2254.0161     6868.792     6314.485    7242.6779    -1390.919    355.28802   -218.21091    288.13065 
  401000       401000    292.67218    89584.282    6610.6963     0.979621   -878.80391    2391.8243     6283.862    6541.3076    7006.9194   -1450.8291    292.37955   -97.234166    292.67218 
  402000       402000    291.39458    89584.282    8004.8548     0.979621    -916.4323    2339.9187    7800.5149    8523.8567    7690.1927    -831.5455    -454.1445   -289.80151    291.39458 
  403000       403000    292.76659    89584.282    7188.6685     0.979621   -914.93763    2356.7456    6092.0626     7909.101    7564.8419   -1378.2481   -57.109604    -345.8866    292.76659 
  404000       404000    285.86262    89584.282    6821.3155     0.979621   -901.21089    2293.3201    6788.4458    7375.6936     6299.807   -1121.7497   -675.84649   -608.38433    285.86262 
  405000       405000    286.19072    89584.282    7454.3701     0.979621   -919.41408    2278.7835    7811.5516    7611.5142    6940.0444   -1373.0954    566.92836    720.78575    286.19072 
  406000       406000    292.77558    89584.282    6690.4384     0.979621   -845.78152    2426.0022    7156.1162    6687.9528    6227.2462   -2304.7892   -899.28211   -315.32995    292.77558 
  407000       407000    284.37555    89584.282    7515.1428     0.979621   -894.31437    2283.5986    6610.3578    8549.6611    7385.4094    -1832.752      1182.15    268.00136    284.37555 
  408000       408000    292.47789    89584.282     6614.942     0.979621   -912.69078    2355.7662    6148.0062    7000.1661    6696.6538   -1270.7669    287.67629    623.38517    292.47789 
  409000       409000    296.62771    89584.282    7709.0429     0.979621   -919.90262    2394.9289     7871.482    7680.4795    7575.1673   -933.64244   -215.69553   -341.30472    296.62771 
  410000       410000    285.52108    89584.282    7081.3377     0.979621   -937.67522    2253.0391    6657.9784     8293.492    6292.5425   -1222.1695    357.81223   -733.88794    285.52108 
[...]
100080000   1.0008e+08    298.39046    89584.282    7200.8243     0.979621   -866.76419    2467.7662    6316.2002    7543.8185    7742.4543    -1053.452    139.36647   -517.79785    298.39861 
100090000   1.0009e+08     296.2932    89584.282    6231.4036     0.979621   -894.59285    2416.5006    5955.6333    6913.9413    5824.6363   -1539.6288   -145.78928   -167.76909    296.30771 
100100000    1.001e+08    298.17507    89584.282    7543.6382     0.979621   -861.66717    2470.4562    6786.8339    7387.7776    8456.3032   -752.33608   -120.43591    -744.0229    298.16738 
100110000   1.0011e+08    297.35151    89584.282    7415.8329     0.979621   -824.06579    2498.8543    7149.8948    8065.9732    7031.6306   -916.74686    466.99912    -207.3673    297.36046 
100120000   1.0012e+08    295.69273    89584.282     6133.553     0.979621   -847.65129    2456.7318    4217.7937    7392.3317    6790.5336   -992.27513   -91.066669   -365.89918    295.69109 
100130000   1.0013e+08    294.67656    89584.282    6504.7285     0.979621   -902.04999    2390.9774    5675.3534     6514.159    7324.6731   -929.74102    288.52817    116.13696    294.66664 
100140000   1.0014e+08    291.39438    89584.282    8036.1787     0.979621   -833.31446    2423.0343    6684.9766    9205.2637    8218.2958   -2069.3429    645.85283    445.43784    291.39662 
100150000   1.0015e+08    295.84463    89584.282    8009.0323     0.979621    -879.1153    2426.9652    7890.7975    8272.1132    7864.1861   -682.45688   -50.583333    470.80349    295.85913 
100160000   1.0016e+08    293.39128    89584.282    7105.5154     0.979621   -883.09483    2395.5694    7779.2636    7105.7225    6431.5601   -582.26165   -526.62488    -373.7706    293.41277 
100170000   1.0017e+08    300.57817    89584.282    7049.7254     0.979621    -956.6293    2402.3488    5827.3318    8157.3298    7164.5145   -1272.6307    -85.44753    531.98776    300.57828 
100180000   1.0018e+08    289.39166    89584.282    5892.2645     0.979621   -889.93738    2344.0309    5740.1572    6401.3864    5535.2497   -1243.2599    188.38677    904.19653    289.38486 
100190000   1.0019e+08    290.07098    89584.282    6943.6047     0.979621   -964.35096    2277.2088    6445.9806    7510.7956     6874.038   -984.24779   -73.342142   -517.56233    290.06615 
100200000    1.002e+08    288.76497    89584.282    6982.0019     0.979621   -984.81212    2242.1529    7090.4935     7195.295    6660.2171   -628.86313    -12.43393   -287.10267    288.77428 
100210000   1.0021e+08     299.7178    89584.282    8137.0392     0.979621   -892.44374    2456.9197     7298.881    8344.8754    8767.3612   -926.38337   -125.66814    -137.8594    299.70605 
100220000   1.0022e+08    297.99723    89584.282    7952.7242     0.979621    -845.5396    2484.5964    8075.5046    8042.6125    7740.0557   -1489.9714    342.57931   -323.33619    298.01061 
100230000   1.0023e+08    291.41848    89584.282    7975.3867     0.979621   -810.03475    2446.5834    8170.1918    8728.5918    7027.3765   -1370.2893   -457.11639    517.74587    291.40154 
100240000   1.0024e+08    296.53422    89584.282     8010.714     0.979621   -881.43672    2432.3501    7823.8495    8307.0916    7901.2009   -1270.2103    361.64188    393.36258    296.54214 
100250000   1.0025e+08     291.8628    89584.282    7492.1857     0.979621   -872.94508    2388.6383    7405.7785    7107.6358    7963.1427   -1021.1276   -8.0737122    143.15575    291.84694 
100260000   1.0026e+08    291.60979    89584.282    7281.1875     0.979621   -881.85408    2376.9019    7208.4023    7492.6198    7142.5403   -1220.6949    373.88703   -1086.9522    291.60727 
100270000   1.0027e+08    292.66571    89584.282    6800.1619     0.979621   -838.73638    2431.8196    5536.2365     7213.874    7650.3752   -1566.1763    509.69219    231.68004    292.66215 
100280000   1.0028e+08    296.34296    89584.282    7381.4482     0.979621   -835.18629    2476.4631    7514.0323    7531.3245    7098.9878   -1161.2594   -105.14467   -193.31192    296.34354 
100290000   1.0029e+08    290.00234    89584.282    7581.7903     0.979621    -887.7417    2353.0509    6384.0866    7729.2262    8632.0581   -714.09865    1099.2825    681.07933    290.00477 
100300000    1.003e+08    296.28727    89584.282    6227.3775     0.979621   -885.99233    2425.0348    5333.2984    7125.4541    6223.3801   -1354.8486   -231.28889    441.76904    296.28461 
100310000   1.0031e+08    288.50018    89584.282    7232.6217     0.979621   -862.22414    2361.7817    6955.7409    7152.1094    7590.0149   -340.35311    505.03746    111.14563    288.52038 
100320000   1.0032e+08    292.96433    89584.282    7062.9571     0.979621   -815.60239    2458.2907    6252.9897     7496.026    7439.8557   -442.93965    7.6870317        131.6    292.97292 
100330000   1.0033e+08    293.35108    89584.282    6283.5222     0.979621   -880.51982    2397.6952    4908.6844    6791.8196    7150.0626   -1551.6485   -462.69433    1111.1796     293.3537 
100340000   1.0034e+08    289.19077    89584.282    6940.5761     0.979621   -876.32106    2355.4022    5763.6376    7253.8308    7804.2598   -1421.8765   -285.34335   -260.98074     289.1916 
100350000   1.0035e+08    284.14676    89584.282    7177.8088     0.979621   -867.35201    2308.0042    7149.4105     6795.178    7588.8381   -1036.7379   -399.66292   -427.26376    284.15267 
100360000   1.0036e+08    290.10192    89584.282    7495.0062     0.979621   -864.36961    2377.5358    8490.8358    6827.8628      7166.32   -1117.0482   -16.909657   -340.64518    290.10352 
100370000   1.0037e+08    294.24193    89584.282    6797.0933     0.979621   -872.44347    2415.7269    5677.6033    7976.8924    6736.7844   -1488.0732     129.7557    540.13537    294.25569 
100380000   1.0038e+08    285.52771    89584.282    6816.6109     0.979621   -914.25499    2276.5334    5847.4854    7519.0012     7083.346   -307.73454   -268.46831    671.82156    285.52923 
100390000   1.0039e+08    294.57215    89584.282    5750.8706     0.979621   -865.82848     2426.032    4485.7848    7971.3599    4795.4672     -777.272    42.519967    342.43076    294.57508 
100400000    1.004e+08    291.37058    89584.282    7273.1856     0.979621   -810.55013    2445.5326     7638.331    7605.6325    6575.5933   -430.91864   -1181.0129    406.59864    291.37169 
100410000   1.0041e+08    286.41615    89584.282     7573.275     0.979621   -830.58944    2370.1273    7479.5657    7537.4567    7702.8027   -480.33158   -152.66845   -455.21243    286.41938 
100420000   1.0042e+08     292.3697    89584.282    7285.5104     0.979621   -853.65676    2413.5913    7272.3849    6857.7124     7726.434   -1658.0851     47.82407   -416.70668      292.379 
100430000   1.0043e+08    288.40284    89584.282     7419.547     0.979621   -869.57635    2353.3417     6677.234    7962.4546    7618.9525   -1038.4883    198.66016    450.47188    288.40066 
100440000   1.0044e+08    294.34504    89584.282    7767.6507     0.979621   -814.65711    2474.6655    6799.6023    7897.2187    8606.1311   -1298.8029    411.00107   -145.96358    294.35189 
100450000   1.0045e+08    295.10593    89584.282     7333.654     0.979621   -800.87559      2496.95    5784.1331    8126.6912    8090.1377   -1002.8672    224.63313   -81.866097    295.10188 
100460000   1.0046e+08    294.16368    89584.282    7455.0605     0.979621   -839.12778     2448.168     6572.183    7553.6127    8239.3858   -235.49444    319.33674     715.3721    294.16315 
100470000   1.0047e+08     292.6143    89584.282    7462.6478     0.979621   -814.06745    2455.9139    7133.3859    8046.5975      7207.96   -658.66341    83.259998    475.50043    292.63372 
100480000   1.0048e+08    291.86032    89584.282    7097.3529     0.979621    -840.0827     2421.473    6332.1601    7232.7426    7727.1559   -1500.3073    229.26425   -586.57924    291.86841 
100490000   1.0049e+08     290.4542    89584.282    6697.8859     0.979621    -724.0468    2521.7954    6319.7447    7427.7567    6346.1563   -1061.2058    230.58579   -922.48206    290.46567 
100500000    1.005e+08    296.05067    89584.282    6746.2742     0.979621    -854.7585    2453.6246    6126.8616    6925.7351    7186.2259   -764.09578    83.033529   -487.85942    296.05028 
100510000   1.0051e+08    298.17431    89584.282    8012.9317     0.979621   -858.21776    2473.8972    7144.2678    8893.8035    8000.7239    -633.5958    257.79453    371.39708    298.16931 
100520000   1.0052e+08    301.97345    89584.282     7028.562     0.979621   -851.70288    2522.8676    6047.8434    6895.4214    8142.4212   -928.29797     32.97363   -46.108802    301.95442 
100530000   1.0053e+08      290.343    89584.282    7221.1566     0.979621   -812.81355    2431.7859    5585.4836    8174.1129    7903.8731   -1701.7038    611.34835    320.97624     290.3427 
100540000   1.0054e+08    292.45286    89584.282     7314.025     0.979621    -879.4836    2388.6937    7567.9105    7225.8818    7148.2826   -969.51038   -194.23231    41.519137    292.46151 
100550000   1.0055e+08     294.2711    89584.282    6442.9358     0.979621   -918.76627    2369.7301    5480.0882    8165.3456    5683.3737   -169.69978    15.212726    164.83007    294.27691 
100560000   1.0056e+08    292.42459    89584.282    6585.0062     0.979621   -899.28775    2368.5737    5622.7066     8012.794    6119.5179   -57.476709   -24.324747   -62.085383    292.43488 
100570000   1.0057e+08    295.35541    89584.282    6985.8757     0.979621   -864.24826    2436.3653    5382.4154    7931.3636    7643.8482   -1179.8591   -305.95943    1110.7169    295.35704 
100580000   1.0058e+08    297.40613    89584.282    7418.1181     0.979621   -913.61211    2409.9184    6786.2096    7877.7095    7590.4351   -613.57076    212.28839    -426.1061    297.42881 
100590000   1.0059e+08    291.00519    89584.282    7499.0209     0.979621   -836.64806    2415.3515    6667.0055    8590.2579    7239.7992   -88.818648   -279.65997    799.19488    291.00028 
100600000    1.006e+08    290.21507    89584.282    7655.5584     0.979621    -947.6949     2295.475    7188.5607    7824.9555    7953.1591   -1416.9193    153.06528     726.7805     290.2121 
100610000   1.0061e+08    293.49232    89584.282    7167.5888     0.979621   -876.80313    2402.9902    6845.2467    7832.9572    6824.5625   -1205.2294   -396.30671   0.39850819    293.48275 
100620000   1.0062e+08    294.57903    89584.282    7398.6261     0.979621   -945.99648     2345.941    6673.8063    8201.8207    7320.2514    -944.6293    106.26037   -1007.0978    294.57543 
100630000   1.0063e+08    292.09735    89584.282     6717.073     0.979621   -900.94513    2363.2593    5613.9603    6911.4711    7625.7875    -1630.102   -180.21853    67.761725    292.12313 
100640000   1.0064e+08    296.60754    89584.282    6768.9443     0.979621   -823.19924    2491.4069    6068.7461    8516.8338    5721.2529    143.64089    161.16332    610.98392     296.6099 
100650000   1.0065e+08    291.54096    89584.282    6045.3796     0.979621   -802.17932    2455.8075    5552.2956    7007.2089    5576.6343   -585.26226    50.375495    254.70435    291.54675 
100660000   1.0066e+08    296.84815    89584.282    7421.0148     0.979621   -916.51854    2400.7764    6107.6813    7746.5731      8408.79   -831.39379    16.301859    242.58913     296.8537 
100670000   1.0067e+08    295.99704    89584.282    7176.0931     0.979621   -887.35216    2420.4316    7113.6038    7130.6454    7284.0299   -164.38019    391.79969   -249.65107    295.98233 
100680000   1.0068e+08    293.28969    89584.282    6786.6493     0.979621   -882.02816    2395.5008    6503.1387    6618.2922     7238.517   -1238.8407   -159.82974   -871.26913    293.28871 
100690000   1.0069e+08    294.88465    89584.282    7780.0586     0.979621   -846.08188    2449.2708    6952.0531     8328.286    8059.8368   -1095.0523    182.32175    553.18846    294.89285 
100700000    1.007e+08    297.07349    89584.282    8017.5463     0.979621   -845.41683    2474.3964    7487.4193    8346.9945    8218.2251   -183.72438    457.05156     139.1051    297.07981 
100710000   1.0071e+08     295.6096    89584.282    7987.8224     0.979621   -889.23555    2414.2185    7459.9502    8725.5596    7777.9573    -1010.214   -68.764781   -508.60796    295.61868 
100720000   1.0072e+08    297.76025    89584.282    7379.8977     0.979621   -863.13646    2464.3513    6761.2055    7577.7102    7800.7773   -751.76282    68.656826   -131.10665     297.7511 
100730000   1.0073e+08    288.31367    89584.282    6013.9292     0.979621   -952.59763     2269.324    5595.6509    6706.3221    5739.8145    -1497.134    10.814839    213.33654    288.30993 
100740000   1.0074e+08    294.18978    89584.282     5747.531     0.979621   -809.41876    2478.1688    5642.6779    5792.5089    5807.4064   -388.71563    172.39472   -216.85035    294.17978 
100750000   1.0075e+08    302.44164    89584.282    7446.0292     0.979621   -885.20171    2494.6009    7233.1946     7193.535    7911.3579   -536.15161   -609.40806   -821.44414    302.45101 
100760000   1.0076e+08     298.8649    89584.282    7297.3033     0.979621   -962.44463    2377.3876     6406.777    7999.7067    7485.4261   -745.18933   -758.80074    88.648951    298.87121 
100770000   1.0077e+08    296.13996    89584.282    6246.4724     0.979621   -951.27453    2358.1064     5478.231    7690.1649    5571.0212   -194.76492   -299.21558    99.114568    296.15003 
100780000   1.0078e+08     284.5636    89584.282    7680.1138     0.979621   -902.61009    2277.4044    7939.2851    8116.1404    6984.9159    -665.9806    183.76627   -861.39642    284.56051 
100790000   1.0079e+08    292.69706    89584.282    7214.8657     0.979621   -992.34021    2278.5661    7383.7397    6821.2095    7439.6479   -1400.6962    423.84821    138.50469    292.70819 
100800000    1.008e+08    291.76306    89584.282    7178.8386     0.979621   -844.96173     2415.507    7142.3075    7501.5958    6892.6126   -43.610471    421.87738    31.137148     291.7805 
100810000   1.0081e+08    297.47019    89584.282    6608.0714     0.979621   -961.69715    2362.5491     5144.482    7770.7918    6908.9404    110.89239   -431.44305     246.9503    297.46914 
100820000   1.0082e+08    287.28226    89584.282    6451.1646     0.979621   -931.52576    2278.8699     5088.272    7258.0916    7007.1301   -1476.0611    648.11486    -87.58897    287.29357 
100830000   1.0083e+08    296.03107    89584.282    7242.5886     0.979621   -957.20919    2350.9548     8280.518     6784.558    6662.6898   -786.62046   -1.9977431    289.80479    296.03981 
100840000   1.0084e+08    287.08301    89584.282    6428.8901     0.979621   -931.51534    2276.6536    6274.3538    7172.4242    5839.8923   -1051.4498    99.833352   -113.77102    287.10697 
100850000   1.0085e+08    295.31703    89584.282    7195.1924     0.979621   -967.50518    2332.6794    6754.7367    7677.4156    7153.4248   -862.87563    296.98281   -279.55794    295.32909 
100860000   1.0086e+08    295.67534    89584.282    6648.9936     0.979621   -962.52023    2341.6685    5491.2542    7120.8995    7334.8271    -2307.433    162.82947   -485.31597    295.69128 
100870000   1.0087e+08    298.23826    89584.282    7216.2492     0.979621   -905.86204    2426.9675    5078.9568    8297.3275    8272.4634    -1386.061     40.40746    12.539486    298.24371 
100880000   1.0088e+08    286.25728    89584.282    7113.1323     0.979621   -947.49397    2251.4474    5330.1496    7797.7972      8211.45   -1529.8065    350.01432   -382.14215    286.25498 
100890000   1.0089e+08    294.05816    89584.282    7381.0039     0.979621   -939.15204    2346.9646    6324.6687     7326.588    8491.7552   -1902.4175   -180.02271    9.9060326    294.06299 
100900000    1.009e+08    293.23411    89584.282    7607.6564     0.979621   -960.56353    2316.3443    6783.0554    8166.0382    7873.8757   -1368.6883   -355.98135   -627.74523    293.24222 
100910000   1.0091e+08    300.51113    89584.282    7329.9638     0.979621   -970.87197     2387.357    6508.9407    8192.9938    7287.9569   -1003.9008   -435.31283    -500.9013     300.5336 
1Generated thermo.dat
Done!
stress
average  1044.95
square average  1.09457*10^06
number of blocks  100
variance  5.14732697620813671192
pxx
average  6400.12
square average  4.0982*10^07
number of blocks  100
variance  14.30523876067785175504
pyy
average  7620.03
square average  5.80704*10^07
number of blocks  100
variance  7.44499771658796413898
pzz
average  7234.58
square average  5.23449*10^07
number of blocks  100
variance  7.58434150075008159900
xx
average  2181.52
square average  4.75902*10^06
number of blocks  100
variance  .30838936427834212843
yy
average  2184.15
square average  4.77049*10^06
number of blocks  100
variance  .46067884692049840199
zz
average  2182.91
square average  4.76511*10^06
number of blocks  100
variance  .37325460479410029644
xx
average  4730.37
square average  2.23969*10^07
number of blocks  100
variance  14.31770341220965507118
yy
average  5948.27
square average  3.53874*10^07
number of blocks  100
variance  7.40540822642479311955
zz
average  5563.76
square average  3.09612*10^07
number of blocks  100
variance  7.59911994904673155600
pressure, stress.strain, ktensor, virial are all concatenated
averages computed will all accumulated data until now
00920000   1.0092e+08    295.41146    89584.282    6913.2409     0.979621   -851.94898    2449.2909     5707.493    7927.2105    7105.0193   -863.29001    277.51018   -278.09474    295.41476 
100930000   1.0093e+08    293.01873    89584.282    7719.5777     0.979621   -839.37205     2435.129    6117.5065    8460.9405    8580.2861    -1427.582    12.251298   -473.46543    293.01773 
100940000   1.0094e+08    306.55681    89584.282    6577.9712     0.979621   -880.18894    2545.6008    5090.7125    7798.2972    6844.9038   -1604.3536   -49.270181    71.981381    306.55835 
100950000   1.0095e+08    288.70169    89584.282    7408.1187     0.979621   -844.72637    2381.5315    6766.5222    8047.0367    7410.7972   -1200.6494    -964.5145    498.27688    288.71986 
100960000   1.0096e+08    289.08786    89584.282    6939.6868     0.979621   -899.79745    2330.7758    5664.1645    7231.8991    7922.9968   -1590.9102    129.36405   -329.17563    289.09832 
100970000   1.0097e+08    295.08365    89584.282    6917.3968     0.979621   -858.40005    2439.1765    6302.8644    7303.2989     7146.027   -854.56132   -365.69515    -270.8215    295.09234 
100980000   1.0098e+08    294.85545    89584.282    7950.6637     0.979621   -930.77126    2364.2551    7495.3619     7690.793    8665.8363   -1765.2525   -369.89159   -38.902639    294.85836 
100990000   1.0099e+08    297.72606    89584.282    6876.8861     0.979621   -890.64378    2436.4619    6114.0021    6378.0145    8138.6417   -1649.6192    367.77934    248.77537    297.73056 
101000000     1.01e+08    286.34175    89584.282    7070.5322     0.979621   -831.90286    2367.9825    6289.2578    7928.6072    6993.7318   -1627.7264    131.93026   -358.88537    286.34201 
Loop time of 15729.2 on 48 procs for 50000000 steps with 3750 atoms

Pair  time (%) = 5746.81 (36.5359)
Bond  time (%) = 1029.48 (6.54499)
Neigh time (%) = 3001.59 (19.0829)
Comm  time (%) = 4300.98 (27.3439)
Outpt time (%) = 2.74022 (0.0174212)
Other time (%) = 1647.63 (10.475)

Nlocal:    78.125 ave 89 max 67 min
Histogram: 2 4 5 6 3 10 7 7 2 2
Nghost:    1419.46 ave 1457 max 1392 min
Histogram: 2 6 7 8 8 5 7 3 1 1
Neighs:    7237.12 ave 8425 max 6019 min
Histogram: 2 3 7 4 6 7 10 6 1 2

Total # of neighbors = 347382
Ave neighs/atom = 92.6352
Ave special neighs/atom = 6.26667
Neighbor list builds = 5585677
Dangerous builds = 0
System init for write_restart ...

real	529m33.499s
user	0m0.053s
sys	0m0.182s
