LAMMPS (10 Feb 2015)
Read molecule SQL:
  30 atoms with 4 types
  29 bonds with 1 types
  34 angles with 1 types
  31 dihedrals with 2 types
  6 impropers with 1 types
Reading restart file ...
  restart file = 10 Feb 2015, LAMMPS = 10 Feb 2015
  triclinic box = (111.702 111.702 111.702) to (158.298 158.298 158.298) with tilt (-1.42109e-12 0 0)
  3 by 4 by 4 MPI processor grid
  3750 atoms
  3625 bonds
  4250 angles
  3875 dihedrals
  750 impropers
250 atoms in group endatoms
60 atoms in group samplechains
Resetting global state of Fix shear1 Style nvt/sllod from restart file info
Neighbor list info ...
  1 neighbor list requests
  update every 1 steps, delay 0 steps, check yes
  master list distance cutoff = 10.3
Setting up run ...
Memory usage per processor = 4.70055 Mbytes
Step dummytim Temp Volume Press Density PotEng TotEng Pxx Pyy Pzz Pxy Pyz Pxz myT 
310000000      3.1e+08    291.00511    101167.02     1024.727     0.867463    -1131.565    2120.4337    817.32476    1238.0915    1018.7648   -163.61391    808.69121   -636.58458    291.03602 
310010000   3.1001e+08    295.33887    101167.02    1928.9581     0.867463    -1178.959    2121.4698    1512.8319    2286.6317    1987.4106   -5.1162251     539.5111   -214.44829    295.36779 
310020000   3.1002e+08      297.098    101167.02    1618.2404     0.867463   -1125.3866    2194.7004    2701.4968    1307.6243    845.60012     187.0181    23.804892    6.9781987    297.12722 
310030000   3.1003e+08    288.57921    101167.02    592.17859     0.867463   -1191.1975    2033.6916    358.17386    1037.5033    380.85866    -329.1069   -290.17268   -58.766824     288.6044 
310040000   3.1004e+08    300.23655    101167.02    1821.1168     0.867463     -1150.19    2204.9705    1452.3903     2186.871    1824.0891    19.689884    463.35999   -232.21736    300.26797 
310050000   3.1005e+08    290.98862    101167.02    733.16964     0.867463    -1122.531    2129.2834    421.61213    1665.3924    112.50436   -148.36636   -321.85846   -94.105223    291.01737 
310060000   3.1006e+08    296.50292    101167.02     1099.626     0.867463   -1190.4186    2123.0184    689.19116    507.03769    2102.6493   -689.70607   -186.02334   -111.06724    296.53055 
310070000   3.1007e+08    294.89799    101167.02    633.60995     0.867463   -1151.7301    2143.7716    590.45359    1235.7941    74.582144    145.36916    866.83804   -433.39764    294.92699 
310080000   3.1008e+08    292.42358    101167.02    1001.2938     0.867463   -1069.2479    2198.6023    634.30941    1540.7768    828.79523   -133.51572     48.85108    350.13602    292.45202 
310090000   3.1009e+08    298.43462    101167.02    343.79218     0.867463   -1143.1899    2191.8339   -23.992635    215.95404    839.41514   -523.16948    33.237139    618.63884    298.46085 
310100000    3.101e+08    288.09663    101167.02    1514.1817     0.867463   -1153.0358    2066.4605    1575.5327    1561.6568    1405.3557   -658.84618    241.48218    214.07698     288.1254 
310110000   3.1011e+08     294.8114    101167.02    754.91632     0.867463   -1109.7315    2184.8027    1027.9049    905.43576    331.40826    67.804216    233.53698    201.97435    294.84094 
310120000   3.1012e+08    294.19118    101167.02    622.26362     0.867463   -1198.2361     2089.367    181.62604    451.13499    1234.0298   -183.80751    417.88245   -516.57592    294.22053 
310130000   3.1013e+08     295.9387    101167.02    1360.0621     0.867463   -1266.1732    2040.9586    1238.4433    1080.8902    1760.8526   -747.06173     77.42263    14.690987    295.96724 
310140000   3.1014e+08    285.84142    101167.02    1042.7843     0.867463   -1141.3069    2052.9872    529.96128     508.4953    2089.8965    549.10351    -636.7692    -174.3168    285.87203 
310150000   3.1015e+08    289.91483    101167.02   -126.68975     0.867463   -1209.1518     2030.663   -672.63123    758.48752   -465.92554    182.34089    153.80985     771.3135    289.94411 
310160000   3.1016e+08    308.15887    101167.02    609.82664     0.867463   -1054.9595    2388.7334    936.84982    625.91355    266.71655     -98.0433   -337.54922   -48.501325    308.18727 
310170000   3.1017e+08    298.17201    101167.02    740.75341     0.867463    -1219.739    2112.3502    751.28107    286.76264    1184.2165   -412.24825    208.62813   -245.60944    298.20143 
310180000   3.1018e+08    292.25787    101167.02    725.95165     0.867463   -1186.0088    2079.9895    31.454095    1443.8172    702.58361    130.98606   -591.58806    -1076.532    292.28497 
310190000   3.1019e+08    289.73211    101167.02     565.1766     0.867463     -1251.54    1986.2328    1025.6578    500.49465    169.37739    340.43463    111.58359   -22.631281    289.76093 
310200000    3.102e+08    293.00177    101167.02    1234.9419     0.867463   -1118.5168    2155.7947    1285.9074    1355.4137    1063.5045   -114.35954    586.30381   -805.18242    293.03125 
310210000   3.1021e+08    293.12475    101167.02     738.1945     0.867463   -1108.3837    2167.3021    189.24516    922.23358    1103.1048   -105.08579    535.78587    -73.57284    293.15599 
310220000   3.1022e+08     292.8796    101167.02    994.55418     0.867463   -1160.3876    2112.5586    1485.0985    1097.4548    401.10926    605.33775   -421.82596    84.340552    292.90632 
310230000   3.1023e+08    287.80562    101167.02    890.70038     0.867463   -1258.8662     1957.378    1232.3988    709.31127    730.39105    566.66677   -457.76014   -350.17465    287.83042 
310240000   3.1024e+08    289.79404    101167.02    425.27355     0.867463   -1136.5155    2101.9493    180.48157    424.44442    670.89465    421.76521    369.09985   -737.31941     289.8241 
310250000   3.1025e+08    295.65837    101167.02    1137.1282     0.867463   -1204.4009    2099.5982    192.66274    1242.1187    1976.6032   -246.11652    283.51929   -33.639004    295.68463 
310260000   3.1026e+08    290.04623    101167.02    1376.8761     0.867463   -1170.7218    2070.5613    1154.1583    1867.3915    1109.0786    -4.126878   -360.02009   -517.55429    290.07333 
310270000   3.1027e+08    293.63027    101167.02    377.77801     0.867463   -1234.8547    2046.4802     186.4736     413.1673    533.69314   -128.10914    109.24543    356.08135    293.65979 
310280000   3.1028e+08    293.62433    101167.02    90.184262     0.867463   -1175.8516     2105.417    420.63324   -73.336515   -76.743935    142.21246    111.02321   -149.57429    293.65339 
310290000   3.1029e+08     296.1679    101167.02    1061.5514     0.867463   -1097.0278    2212.6653    1090.2973    1213.7424    880.61458    83.581285      704.498   -591.91853    296.19648 
310300000    3.103e+08    297.49027    101167.02    833.22035     0.867463   -1230.8635    2093.6072   -131.81756    1717.9764    913.50223   -458.47062      -350.06    887.98466    297.51879 
310310000   3.1031e+08    284.15468    101167.02    700.14862     0.867463   -1244.3038    1931.1409    1422.2721     628.3903    49.783425   -4.4248374    392.36478   -224.03069     284.1802 
310320000   3.1032e+08    292.75993    101167.02    1094.9697     0.867463   -1080.4255    2191.1834    964.81666    359.84599    1960.2464   -313.71826    1061.3961   -192.99981    292.78906 
310330000   3.1033e+08    297.05644    101167.02    264.67957     0.867463   -1169.9349    2149.6877   -197.66873   -5.0258177    996.73327   -768.59871    417.45063   -738.31883    297.08144 
310340000   3.1034e+08    286.63486    101167.02    588.17853     0.867463   -1219.0623    1984.0985   -261.68524    1161.3602    864.86067   -929.05581     45.24753    348.63931    286.66212 
310350000   3.1035e+08    291.53764    101167.02    1250.0409     0.867463   -1173.2514    2084.6984     1613.293    691.83171    1444.9979   -1012.8187   -138.36533     50.72963    291.56642 
310360000   3.1036e+08    288.73275    101167.02    904.42295     0.867463   -1229.7145    1996.8905    941.57317    1530.8907    240.80499   -672.46783    49.793555   -322.33788    288.76038 
310370000   3.1037e+08    299.40916    101167.02    932.54064     0.867463   -1092.8359    2253.0785    501.82924    698.89967     1596.893    163.73691   -529.19193   -177.09194    299.43916 
310380000   3.1038e+08    288.74229    101167.02     1995.476     0.867463   -1241.6297    1985.0819    2172.7573    1724.1946    2089.4761   -514.23447   -246.03419   -115.56336    288.76878 
310390000   3.1039e+08    302.24637    101167.02    1237.0796     0.867463   -1141.0769    2236.5435    1099.0645    998.19609    1613.9781    203.48668    -260.2064   -83.843781    302.27529 
310400000    3.104e+08    288.46547    101167.02     239.2902     0.867463   -1122.5654    2101.0527   -247.76456    110.96701    854.66814   -1050.0107   -302.76141      777.934     288.4956 
310410000   3.1041e+08    295.89561    101167.02   -446.85151     0.867463   -1226.4496    2080.2006    -840.1884   -57.491786   -442.87434    341.80087   -628.15532    44.799574    295.92445 
310420000   3.1042e+08    295.71737    101167.02    1647.3392     0.867463   -1199.5854     2105.073    1514.1166    1968.6413    1459.2597   -434.47293     225.9247    318.95219     295.7467 
310430000   3.1043e+08    295.13478    101167.02    1721.7732     0.867463   -1220.8231    2077.3249    1822.2701     1539.395    1803.6545    257.52793    211.29289   -294.35652    295.16212 
310440000   3.1044e+08    291.50921    101167.02     1637.966     0.867463   -1145.6611    2111.9709    1568.7914     1433.405    1911.7016   -754.82491    385.19884    38.657766    291.54127 
310450000   3.1045e+08    296.69581    101167.02     961.8367     0.867463   -1236.6369    2078.9557    1155.6243    522.73443    1207.1513    -112.3833    308.57583   -23.313657    296.72678 
310460000   3.1046e+08    289.64133    101167.02    894.87234     0.867463   -1172.6294     2064.129     1048.823    320.52707    1315.2669    27.600516   -243.27889   -146.85572    289.66569 
310470000   3.1047e+08    287.13595    101167.02    952.88381     0.867463   -1210.6715    1998.0892    860.54991    1188.8065    809.29501    147.03159   -424.91856   -105.10668    287.16102 
310480000   3.1048e+08    289.44567    101167.02    1035.5641     0.867463   -1118.9952    2115.5766    848.14165    1216.2255    1042.3251   -609.75628   0.68017375    -625.8217    289.47242 
310490000   3.1049e+08    290.78488    101167.02    1492.6523     0.867463   -1200.0745    2049.4631    900.45805    1623.1138    1954.3852    323.77381    589.31475    276.50333    290.81337 
310500000    3.105e+08    294.13425    101167.02    853.26942     0.867463   -1133.7977    2153.1692    1910.1894     6.206711    643.41215    186.60346    564.86493    -712.9444    294.16069 
310510000   3.1051e+08    294.11253    101167.02    1094.4758     0.867463   -1272.5714    2014.1528    672.75573    1641.5243    969.14735   -748.54824    547.85024   -9.2172824    294.13824 
310520000   3.1052e+08    294.00064    101167.02     770.1422     0.867463   -1217.8747    2067.5991    952.35662    373.96127    984.10871   -366.22369   -265.75991   -411.07801    294.02628 
310530000   3.1053e+08    290.64806    101167.02    722.89494     0.867463   -1239.9077    2008.1009    573.79693    1089.0747    505.81316   -374.56263   -419.39482     275.2668     290.6737 
310540000   3.1054e+08    294.47474    101167.02    863.13805     0.867463   -1205.7827    2084.9892    915.12356    639.30521    1034.9854    47.002496   -644.75504   -386.32894    294.50136 
310550000   3.1055e+08    289.30842    101167.02    583.29394     0.867463   -1107.9229    2125.1151    866.04282    525.31844    358.52057   -756.65597   -374.01398   -390.87795     289.3372 
310560000   3.1056e+08    291.46466    101167.02    923.63014     0.867463   -1202.5588    2054.5753    -47.70121    1250.2754    1568.3162   -940.30188   -348.34961    369.79313    291.48988 
310570000   3.1057e+08    294.22423    101167.02    865.16212     0.867463   -1197.9385     2090.034    42.181986    621.15745    1932.1469   -818.15049    113.62155   -128.37755    294.25033 
310580000   3.1058e+08     293.4786    101167.02    790.86778     0.867463   -1223.8226    2055.8175     1280.059    416.42645    676.11792    -89.28813     472.7212   -88.861962    293.50314 
310590000   3.1059e+08    290.54969    101167.02    1341.1313     0.867463   -1095.7313     2151.178    1807.7498     1270.949    944.69505   -181.03007   -181.04108    81.900119    290.57569 
310600000    3.106e+08    291.54067    101167.02     921.6892     0.867463   -1104.9274    2153.0562    548.89006    1848.8917    367.28588   -744.86855    203.95012    9.2419397    291.56818 
310610000   3.1061e+08    297.93985    101167.02     53.78759     0.867463   -1163.0247    2166.4701    184.88006   -418.44316    394.92587    322.89476   -183.18333   -102.71546    297.96941 
310620000   3.1062e+08    282.65822    101167.02    972.64452     0.867463   -1145.9386    2012.7831    1527.9153    1156.0072    234.01098   -113.77381    299.42782   -437.56865    282.68481 
310630000   3.1063e+08    295.62631    101167.02     465.9296     0.867463   -1147.4901    2156.1507    797.62604    35.470944    564.69182   -155.83748   -204.96941    638.11811    295.65512 
310640000   3.1064e+08    293.02292    101167.02    1266.1245     0.867463   -1235.6653    2038.8825    1305.7556    1023.0463    1469.5716   -252.29817    508.92563    344.16295     293.0507 
310650000   3.1065e+08     291.5995    101167.02    332.20805     0.867463   -1162.8643    2095.7767    563.73972    603.83516   -170.95072   -341.15032   -224.22994   -249.61606    291.62868 
310660000   3.1066e+08    300.98393    101167.02    1065.0201     0.867463   -1171.4692    2192.0433    944.69848    1467.2604    783.10158   -175.23168    279.33988   -129.58087    301.01058 
310670000   3.1067e+08    297.39808    101167.02    690.22296     0.867463   -1155.1379    2168.3026    1470.7222    581.26172    18.684998   -32.418087   -336.05827   -340.33975    297.42772 
310680000   3.1068e+08    290.97667    101167.02    646.44209     0.867463   -1142.1995    2109.4812   -31.768093    1089.2069    881.88748    20.869815   -1046.7255    259.65975    291.00618 
310690000   3.1069e+08    293.37876    101167.02    1026.7933     0.867463   -1229.3154    2049.2089    135.91465    1218.6422    1725.8229   -358.95433   -573.35936   -8.2163885    293.41059 
310700000    3.107e+08    294.84402    101167.02    875.43899     0.867463    -1168.345    2126.5537    204.33235    1736.9736    685.01108   -129.46808    247.34001   -692.50811    294.87155 
310710000   3.1071e+08    290.05636    101167.02    1669.8739     0.867463   -1184.2056    2057.1908    1557.7517     1784.484     1667.386   -304.20955    219.96493   -776.76931    290.08263 
310720000   3.1072e+08    292.06911    101167.02    995.33647     0.867463   -1153.4324    2110.4566    684.88723    1231.5968    1069.5254   -92.980324   -6.9445391   -81.155569     292.0978 
310730000   3.1073e+08    291.98793    101167.02    301.94374     0.867463   -1172.6937     2090.288   -20.050987    1050.9342   -125.05196   -818.14599    450.45976   -641.85121    292.01609 
310740000   3.1074e+08    290.47163    101167.02    1340.9777     0.867463   -1247.2425    1998.7945    524.33504    2115.5621    1383.0359   -72.764352     199.8064   -587.29407     290.4977 
310750000   3.1075e+08     296.5605    101167.02    792.80097     0.867463    -1089.874    2224.2065    596.74215     1108.199    673.46174    308.19702     185.2733    370.34779    296.58633 
310760000   3.1076e+08    294.65993    101167.02    1020.7243     0.867463   -1146.3656    2146.4759    249.43289    1404.0411     1408.699   -95.756397   -455.40562   -967.62478    294.68506 
310770000   3.1077e+08    294.42702    101167.02     1211.397     0.867463    -1147.639    2142.5997    1513.9017    902.16495    1218.1244    -175.4551    419.09879   -325.28225    294.45549 
310780000   3.1078e+08    298.88872    101167.02    40.860059     0.867463   -1187.1659    2152.9325    19.566759    395.90854   -292.89512    -687.1401    164.57929   -630.58808    298.91562 
310790000   3.1079e+08     300.4066    101167.02    1151.7536     0.867463   -1097.9822    2259.0786     1995.279    341.16721    1118.8146   -377.74409    318.72705    113.60283    300.43474 
310800000    3.108e+08      297.691    101167.02    864.07361     0.867463   -1132.6982    2194.0156    755.57079    1409.7838    426.86622    378.79846   -145.58334    680.48142    297.71817 
310810000   3.1081e+08    302.18607    101167.02    376.05909     0.867463   -1138.7326     2238.214     745.2955    451.01482   -68.133057    153.19963     782.5468    276.03045    302.21455 
310820000   3.1082e+08    288.68217    101167.02    429.92211     0.867463   -1086.7028    2139.3369    483.94197    311.67078    494.15356   -555.39356   -44.220058   -58.360604    288.71014 
310830000   3.1083e+08    292.61614    101167.02    530.12484     0.867463   -1116.1885    2153.8135    1163.6532   -2.5068209    429.22813   -699.79163   -1046.3683   -119.86755    292.64294 
310840000   3.1084e+08    293.13074    101167.02    733.72003     0.867463   -1123.1982    2152.5545    809.62235    651.93479    739.60295     -139.924    -227.5769   -386.90591    293.15869 
310850000   3.1085e+08    297.95092    101167.02    1814.9076     0.867463   -1201.2503    2128.3682    1517.0294    2729.3492    1198.3441    -243.2919    297.00842    380.50328    297.98237 
310860000   3.1086e+08    297.08221    101167.02    988.52368     0.867463   -1161.6545    2158.2561    1630.8211    1515.4523   -180.70237   -466.20033     139.3491   -4.2590438    297.11188 
310870000   3.1087e+08    290.96303    101167.02    1759.4943     0.867463   -1130.6316    2120.8968     2044.561    1329.6507    1904.2713   -830.80051   -382.84202   -200.20827    290.98923 
310880000   3.1088e+08    295.32376    101167.02    2176.7881     0.867463   -1182.7303    2117.5294    2319.2062    2446.7739    1764.3843    346.84241   -19.149729   -271.62757    295.35142 
310890000   3.1089e+08    291.83791    101167.02    1361.6966     0.867463   -1171.5341    2089.7711    2828.0992    1422.7222   -165.73155   -842.90123   -291.11011    426.57562      291.867 
310900000    3.109e+08    291.95988    101167.02   -22.344856     0.867463   -1175.9589    2086.7094    -247.9503    198.10164   -17.185912   -683.09326     -308.592   -730.92465    291.98841 
310910000   3.1091e+08    298.15676    101167.02    1183.1017     0.867463   -1117.0065    2214.9123    1144.9757    614.00999    1790.3193   -770.53973   -443.30006   -191.90557    298.18969 
310920000   3.1092e+08    299.09906    101167.02     811.8227     0.867463    -1156.432     2186.017    439.31055    1467.9254    528.23216    236.72377    534.83611   -376.96102    299.12487 
310930000   3.1093e+08    298.54169    101167.02    1019.3289     0.867463   -1218.2926    2117.9278    150.45221    1279.3653    1628.1692   -272.71298   -244.10294   -107.21246    298.57298 
310940000   3.1094e+08    295.83042    101167.02    846.27277     0.867463   -1136.7655    2169.1563    1362.8208    285.75812    890.23935    -262.9049   -742.78185    653.02791    295.85822 
310950000   3.1095e+08    295.34936    101167.02    808.05486     0.867463   -1146.2807    2154.2652    933.18403    543.11972    947.86084    95.382573    236.21369   -1355.7692    295.37514 
310960000   3.1096e+08    297.73806    101167.02    1089.1921     0.867463   -1115.9461    2211.2936    1077.5069    1539.4834    650.58607    -396.9267    326.08291   -448.07715    297.76677 
310970000   3.1097e+08    297.40546    101167.02    644.59794     0.867463   -1136.8107    2186.7122    875.86567    736.54975    321.37839    301.04221    499.85651   -1405.5936    297.43535 
310980000   3.1098e+08    287.79294    101167.02    559.79313     0.867463   -1089.3794     2126.723    443.74427    1586.7611   -351.12596   -537.02747    642.65971    594.06112    287.82066 
310990000   3.1099e+08    293.80325    101167.02    1533.4032     0.867463   -1153.3459    2129.9221     2391.964    1691.5213    516.72428    144.86051     201.8357    5.8249744    293.83046 
311000000     3.11e+08    291.58073    101167.02    998.91199     0.867463   -1163.4309    2095.0004    1101.6759    905.92233    989.13777   -316.84599    80.517479    393.45951    291.60682 
311010000   3.1101e+08    296.05297    101167.02    2087.7198     0.867463   -1172.4223    2135.9864    2247.2352    2309.8614    1706.0627    699.11635   -233.71661   -493.67776    296.07962 
311020000   3.1102e+08    299.74283    101167.02    1020.6242     0.867463   -1113.9776    2235.6655    326.81708    252.25612    2482.7995   -380.11054    158.81077    245.19566    299.77035 
311030000   3.1103e+08    288.65031    101167.02    1728.3848     0.867463   -1083.9241    2141.7595    1173.7648      2140.33    1871.0596    -418.3154   -22.617405    180.73817    288.68045 
311040000   3.1104e+08    287.49487    101167.02    1064.9387     0.867463   -1176.3099    2036.4616     752.1401    1448.2393    994.43668    525.36623    392.77805   -153.48356    287.52212 
311050000   3.1105e+08    298.28286    101167.02    509.62232     0.867463   -1146.2083    2187.1196    15.842784    1110.3197    402.70451   0.78768543    -289.9809   -83.684854    298.30868 
311060000   3.1106e+08    292.73535    101167.02    1458.6275     0.867463   -1191.3314    2080.0028    1223.9976    806.12899    2345.7558   -1102.2539   -579.24486   -469.34227     292.7641 
311070000   3.1107e+08    296.70524    101167.02    1047.5987     0.867463   -1155.7341    2159.9638    352.09383    1184.7947    1605.9075   -199.32312   -352.06576   -603.06648    296.73039 
311080000   3.1108e+08    290.94582    101167.02    637.64784     0.867463   -1185.2254    2066.1107      307.522    960.07856    645.34296   -594.61517     671.6052     690.9064    290.97474 
311090000   3.1109e+08    292.58551    101167.02    1109.9137     0.867463   -1137.6615    2131.9983    1407.0384    928.41415    994.28851    111.92034    113.29338    1365.0328    292.61641 
311100000    3.111e+08    294.97578    101167.02    576.80382     0.867463   -1191.8699    2104.5012    640.41541    88.817065     1001.179   -342.85121    297.78209     102.0245    295.00355 
311110000   3.1111e+08    296.61742    101167.02    484.86843     0.867463   -1178.0453    2136.6713   -385.72622    1002.1735      838.158   -197.83241    46.130318    226.01236    296.64754 
311120000   3.1112e+08    285.97839    101167.02    927.90365     0.867463   -1116.5812    2079.2436    1132.3878    1087.5798    563.74341    335.80895    207.73159    1056.1339     286.0087 
311130000   3.1113e+08    292.24192    101167.02     710.1024     0.867463   -1138.3407    2127.4794    767.09858    956.90299    406.30562   -219.56748   -352.27288    115.42622    292.26914 
311140000   3.1114e+08      293.867    101167.02    584.71649     0.867463    -1117.741    2166.2394    1306.2912    704.71832   -256.86001   -489.58289    508.54521    84.413381    293.89346 
311150000   3.1115e+08    292.83364    101167.02    1934.0292     0.867463    -1165.509    2106.9235    1252.6993    3277.8085      1271.58   -126.65016   -535.96808    474.34461     292.8582 
311160000   3.1116e+08    291.78908    101167.02    1168.7207     0.867463   -1184.3223    2076.4373    1589.4788    912.15901    1004.5243   -516.62865    404.89155    582.88267    291.81898 
311170000   3.1117e+08    291.30786    101167.02    536.67031     0.867463   -1095.7758    2159.6062    187.43676    1272.2638    150.31038   -511.49982   -210.06061     296.8717    291.33553 
311180000   3.1118e+08    293.88312    101167.02    1242.7577     0.867463   -1215.8336     2068.327    2101.1133    745.11026    882.04971   -491.94251    215.46072   -544.22111    293.90997 
311190000   3.1119e+08    294.26542    101167.02    1075.5115     0.867463   -1102.1566    2186.2762    1282.3781    834.50863    1109.6477   -42.985837   -116.11458   -62.609944     294.2925 
311200000    3.112e+08    291.00966    101167.02    1714.2663     0.867463   -1122.5295      2129.52    2088.3121     1048.895    2005.5918    -772.5108   -482.44989    117.91756    291.03484 
311210000   3.1121e+08    287.77668    101167.02    266.16173     0.867463   -1166.3089    2049.6119   -292.44419    345.45997    745.46943    54.657096    294.09297   -737.88114    287.80612 
311220000   3.1122e+08    293.61652    101167.02      1653.52     0.867463   -1131.5108    2149.6705    1955.6918     1565.873    1438.9953   -347.80132    216.92017    67.544602    293.64711 
311230000   3.1123e+08    294.34949    101167.02     1047.214     0.867463   -1239.8906    2049.4817    752.84538    1345.8218    1042.9747    398.88491    231.27199    529.32553    294.37784 
311240000   3.1124e+08    294.10148    101167.02    1275.6731     0.867463    -1188.581    2098.0198    1836.9462     1404.858    585.21526   -771.73291     337.7216   -763.85717    294.12646 
311250000   3.1125e+08    290.60269    101167.02    1742.9887     0.867463   -1152.2013    2095.3002    1733.8368    1800.6783    1694.4511   -334.96998   -162.10369   -460.29364    290.63003 
311260000   3.1126e+08      290.569    101167.02       686.61     0.867463   -1219.7179    2027.4071    1663.9029    239.92883    155.99828    761.20677    620.39807   -105.24588    290.59743 
311270000   3.1127e+08    288.87934    101167.02    1043.4737     0.867463   -1192.4928    2035.7503    696.00304    1582.2647    852.15335   -202.20369    257.43719    22.849308    288.90994 
311280000   3.1128e+08    295.87491    101167.02    1283.4054     0.867463   -1213.7214    2092.6976    1550.3444     1159.088    1140.7836     -65.4642    582.76544    51.952584    295.90176 
311290000   3.1129e+08    290.88997    101167.02    764.43117     0.867463   -1231.2318    2019.4802     1006.245     314.0046    973.04395    188.42335     341.9797    427.41332     290.9193 
311300000    3.113e+08     290.3219    101167.02    1085.9994     0.867463   -1185.7388     2058.625    970.05217    2356.9493   -69.003374    883.92579    692.04008   -69.767394    290.34703 
311310000   3.1131e+08    286.04685    101167.02    1125.7877     0.867463   -1117.8807    2078.7092    1146.7111    1131.7092    1098.9428   -569.98214   -220.71562    -576.0748    286.07303 
311320000   3.1132e+08    295.09224    101167.02    736.51742     0.867463    -1142.616    2155.0565     1120.737    1163.8243   -75.009116    2.8898182   -412.72704     668.7584    295.11965 
311330000   3.1133e+08    295.95219    101167.02    943.29543     0.867463   -1182.8401    2124.4424    1168.5928    186.85628    1474.4372    341.50255    339.81605    -312.2976    295.98005 
311340000   3.1134e+08    298.51155    101167.02    876.59143     0.867463   -1154.8058    2181.0777    1454.1473    581.03071    594.59626   -101.39326   -115.38146    382.03506    298.54335 
311350000   3.1135e+08    290.00337    101167.02    560.42939     0.867463   -1111.7256    2129.0786    1230.7011    112.75343    337.83365     -737.354   -112.06466   -311.36676     290.0306 
311360000   3.1136e+08    292.70398    101167.02    1252.7846     0.867463    -1171.972    2099.0116    1837.3004    1099.3963    821.65704   -65.956568   -856.39427   -61.216425    292.73072 
311370000   3.1137e+08    297.76398    101167.02    910.76746     0.867463   -1224.3955    2103.1339    1046.3392    1209.8563     476.1069   -111.55953    307.46832   -272.13877    297.78959 
311380000   3.1138e+08    296.72343    101167.02    1396.5476     0.867463   -1150.9674    2164.9338    475.82029    1828.5154     1885.307   -517.31657   -45.892196   -132.53058    296.75338 
311390000   3.1139e+08    291.09898    101167.02    1448.4875     0.867463   -1108.6366    2144.4111    1555.1256    1498.9451    1291.3917   -13.040366   -94.505514   -283.73896    291.12655 
311400000    3.114e+08    288.95963    101167.02    292.12463     0.867463   -1149.5242    2079.6162    532.08889   -440.55127    784.83628    128.61109     563.1684   -171.60275     288.9858 
311410000   3.1141e+08    287.86794    101167.02    1922.4028     0.867463   -1184.5963    2032.3443    2035.6452    2079.7346    1651.8286   -681.14391   -439.63562    52.061729    287.89544 
311420000   3.1142e+08    300.92017    101167.02    1340.8517     0.867463   -1123.1411     2239.659    153.63494    1437.5148    2431.4055   -1186.4277   -269.55269   -270.46178    300.95112 
311430000   3.1143e+08    292.15335    101167.02    815.58281     0.867463    -1168.834    2095.9963    1567.4208    1245.9761   -366.64852    147.73841    197.40841   -165.69284    292.18357 
311440000   3.1144e+08    292.57177    101167.02    809.03641     0.867463   -1116.1615    2153.3447     1123.971    1235.7752     67.36308   -562.58298    75.116402    196.03641    292.59884 
311450000   3.1145e+08    290.19244    101167.02     1303.109     0.867463   -1139.9188    2102.9982    581.57978    1251.7825    2075.9647   -197.42185    741.24165    663.93481    290.21941 
311460000   3.1146e+08    288.63315    101167.02    654.88265     0.867463   -1204.7661    2020.7258    580.48325    304.22945    1079.9352    620.78126   -91.666032   -967.64099    288.66003 
311470000   3.1147e+08    292.04647    101167.02    1175.1932     0.867463   -1182.8841    2080.7518    1760.7862      778.827    985.96643    337.42822   -111.76677    128.45702    292.07091 
311480000   3.1148e+08    297.30533    101167.02    408.12359     0.867463   -1245.5595    2076.8445   -101.11345    460.84376    864.64045   -472.74519    281.68819    698.51588    297.33477 
311490000   3.1149e+08     295.9333    101167.02    897.58322     0.867463   -1156.6011    2150.4703    947.45209    329.85065    1415.4469    200.29249    334.27421    167.38719    295.95859 
311500000    3.115e+08    287.87978    101167.02    570.61221     0.867463   -1156.0409     2061.032    515.46591    386.50439    809.86632   -303.75474    282.27228   -83.407128    287.90853 
311510000   3.1151e+08    292.99393    101167.02     1028.901     0.867463   -1092.1645    2182.0593    57.255232    1359.9068    1669.5409   -1060.6305    318.04612    461.11506     293.0203 
311520000   3.1152e+08    291.26294    101167.02    1195.4069     0.867463   -1144.4973    2110.3826    317.32144    1288.1937    1980.7057   -297.73142   -52.721604    490.70398    291.29506 
311530000   3.1153e+08    291.07042    101167.02    1117.4058     0.867463   -1200.6422    2052.0863    1587.8009    831.62175     932.7949   -426.74559    421.81525   -267.94562    291.09919 
311540000   3.1154e+08    291.55585    101167.02    1318.9474     0.867463   -1134.1926    2123.9606    1497.5232    581.53319    1877.7858   -454.28949   -343.53572   -618.73953    291.58011 
311550000   3.1155e+08    300.39402    101167.02    788.55677     0.867463   -1023.1923     2333.728    825.73938    670.44587    869.48507   -142.87487    146.01638    504.44951    300.42449 
311560000   3.1156e+08    291.14315    101167.02    1276.4958     0.867463   -1118.8086    2134.7327    2373.0627    1159.9407    296.48391    499.65273    215.27021    439.25496    291.17183 
311570000   3.1157e+08    287.89777    101167.02    1162.0493     0.867463   -1120.6092    2096.6647    1911.5748     484.4179    1090.1553   -542.61273   -394.42356    123.83199    287.92614 
311580000   3.1158e+08    298.67096    101167.02    1231.2581     0.867463   -1178.2052    2159.4598    1066.1558    723.74414    1903.8745    -149.5755    134.15616   -885.63626    298.70295 
311590000   3.1159e+08    285.36674    101167.02    182.83696     0.867463   -1122.9494    2066.0401    225.31592   -51.488868    374.68382   -145.04953   -291.49653   -893.01341     285.3959 
311600000    3.116e+08    294.40284    101167.02    1612.8896     0.867463   -1105.8681    2184.1004    2110.6439    1557.4761    1170.5488   -288.86371    -117.3252   -524.09313    294.42727 
311610000   3.1161e+08    290.44307    101167.02    1372.8491     0.867463   -1111.7181    2133.9997    434.47147    2266.3673    1417.7087   -148.40746   -91.887378    62.717249    290.46655 
311620000   3.1162e+08     292.1071    101167.02    524.58263     0.867463   -1147.2957    2117.0178     1283.377    759.03942   -468.66857   -189.45471    417.70676   -93.419532     292.1324 
311630000   3.1163e+08    299.45446    101167.02    391.47656     0.867463   -1081.2442    2265.1764    221.13484    202.69558    750.59926   -13.826479    121.48281    841.25174    299.48866 
311640000   3.1164e+08    293.52782    101167.02    1713.2291     0.867463   -1071.9159    2208.2742    2901.1767    956.82017    1281.6904    282.56638    770.34195    67.071756     293.5588 
311650000   3.1165e+08    287.96831    101167.02    1748.8362     0.867463   -1072.7822      2145.28    2302.0941    2342.4417    601.97267    3.2515155   -325.48679    289.00784    287.99753 
311660000   3.1166e+08    291.61406    101167.02     1269.339     0.867463   -1148.1039    2110.6998    2297.8977    995.10815    515.01105   -217.03652    222.63715    207.55847    291.64082 
311670000   3.1167e+08    291.28028    101167.02    1442.1947     0.867463   -1194.6817     2060.392    1219.6653    1924.8155    1182.1034   -868.75886   -131.50513    75.741582    291.30529 
311680000   3.1168e+08    287.94804    101167.02    1430.6976     0.867463    -1226.422    1991.4138    1821.0219    1423.4319     1047.639   -552.44337    210.77633    275.37149    287.97528 
311690000   3.1169e+08    302.61464    101167.02    1003.5115     0.867463   -1199.5929    2182.1429    1028.4412    936.06089    1046.0323   -694.21783   -439.39958    397.88013    302.64375 
311700000    3.117e+08     288.9989    101167.02    1389.4197     0.867463   -1150.7391      2078.84    1214.1023    1288.5782    1665.5786   -54.091961    673.32381    14.504148    289.02475 
311710000   3.1171e+08    294.29386    101167.02    569.25691     0.867463   -1185.7009    2103.0497    391.06042    464.64977    852.06054   -37.032172    19.023455   -248.89153    294.32383 
311720000   3.1172e+08    292.21278    101167.02     810.5318     0.867463    -1185.748    2079.7463     1688.632    130.66608    612.29734    66.804635   -437.83726    586.74951    292.24019 
311730000   3.1173e+08    301.07275    101167.02     1026.681     0.867463   -1198.5875    2165.9176    479.41515     992.1738    1608.4542    408.79744   -427.22685   -409.08383    301.09617 
311740000   3.1174e+08    290.78921    101167.02    1558.0505     0.867463   -1217.2558    2032.3301    1062.4737    1514.7061    2096.9716    378.70526   -258.59544    195.00722    290.81672 
311750000   3.1175e+08    290.31698    101167.02    1143.2373     0.867463   -1110.7414    2133.5673    1563.9406    1077.0145    788.75687    -57.73242    216.63883    22.965403    290.34157 
311760000   3.1176e+08    288.85337    101167.02    1614.3549     0.867463   -1148.5233    2079.4296    1825.0711    1473.5609    1544.4329    27.485927   -137.84743    247.63706    288.87984 
311770000   3.1177e+08    292.97272    101167.02     1266.556     0.867463   -1063.0295    2210.9573    1670.2477    910.06905    1219.3514   -401.45837     616.7424    302.66469    293.00004 
311780000   3.1178e+08    296.67327    101167.02    1275.4267     0.867463   -1107.8908    2207.4498    1033.7136    1752.5973    1039.9692   -811.58095     551.3077    135.47327    296.70177 
311790000   3.1179e+08    292.79329    101167.02    902.45059     0.867463   -1051.4842    2220.4975    946.92346    1586.7083    173.72004    3.8396027   -10.785751    464.72161    292.82561 
311800000    3.118e+08    292.78707    101167.02    852.08577     0.867463   -1123.8871    2148.0251    643.46886    641.99319    1270.7952   -433.39377    206.64059     -521.598    292.81478 
311810000   3.1181e+08    289.54618    101167.02     1161.417     0.867463   -1152.5569    2083.1382    826.26861    1380.3878    1277.5945     72.55916    358.96975    356.92728    289.57365 
311820000   3.1182e+08    286.88972    101167.02    1145.0448     0.867463   -1142.2679     2063.741    1551.7617    1109.9302    773.44266   -650.86425   -671.96581    236.81102    286.91758 
311830000   3.1183e+08    294.08314    101167.02     1132.755     0.867463   -1079.8188    2206.5771    162.56452    1623.4021    1612.2983    33.099796    709.02367     939.2591    294.11262 
311840000   3.1184e+08    288.00149    101167.02    1783.9722     0.867463   -1187.1183    2031.3148    1146.3934    2034.9548    2170.5684    141.28834    199.23981    269.36267    288.02966 
311850000   3.1185e+08    287.94498    101167.02    1399.0583     0.867463   -1144.7384    2073.0632    1089.5879    1930.2533    1177.3337   -272.26385    577.05857    136.07444    287.97337 
311860000   3.1186e+08    286.08702    101167.02      1415.77     0.867463   -1163.7092    2033.3295    1240.4465    1645.9308    1360.9326   -637.18029    62.998235    744.04362    286.11484 
311870000   3.1187e+08    285.87023    101167.02      573.841     0.867463   -1155.9838    2038.6323    306.74741    711.17442    703.60115    337.24609     515.8235    -41.89116    285.89646 
311880000   3.1188e+08    290.76251    101167.02    874.97124     0.867463   -1223.1519    2026.1357    1183.2209    1105.4373    336.25557    138.13346    138.00811   -364.09101    290.79234 
311890000   3.1189e+08    289.67473    101167.02    1049.8766     0.867463   -1151.6487    2085.4828    993.72466    785.71679    1370.1883   -97.347837    -10.00118   -842.37811    289.70333 
311900000    3.119e+08    292.34999    101167.02    1053.9035     0.867463   -1085.3448    2181.6829    2098.9379    510.79794    551.97475    139.03455    26.853074    115.75233    292.37774 
311910000   3.1191e+08    296.51075    101167.02    840.30093     0.867463   -1058.8902    2254.6343    1249.4796    607.87967    663.54357   -620.24494    80.842829   -52.607966    296.53963 
311920000   3.1192e+08    291.20619    101167.02    1453.8531     0.867463   -1106.6277    2147.6181    1651.4699    1178.9108    1531.1788   -549.96408   -856.01812    -244.8049    291.23761 
311930000   3.1193e+08    302.26562    101167.02    130.16307     0.867463   -1097.8232    2280.0123   -249.25984    255.75816    383.99088   -526.58523    84.874771   -849.84031    302.29633 
311940000   3.1194e+08    295.17346    101167.02    1121.4414     0.867463   -1095.3395    2203.2408     947.0884    1122.1086    1295.1272   -60.689495   -616.70371    258.02219    295.20479 
311950000   3.1195e+08    293.03881    101167.02    1331.5592     0.867463   -1091.9347    2182.7907    1180.2199    1659.6373    1154.8202   -370.92723    427.96646    261.35293    293.06649 
311960000   3.1196e+08     293.1527    101167.02     732.1615     0.867463   -1121.2411     2154.757    669.23501    665.20457    862.04492   -672.51128   -297.27738    -364.2663    293.17994 
311970000   3.1197e+08    290.44357    101167.02    545.02952     0.867463   -1071.0805    2174.6429   -442.58329     1241.384    836.28783   -881.11998   -105.21047    405.19475     290.4725 
311980000   3.1198e+08    294.17009    101167.02    587.94545     0.867463   -1123.4336     2163.934     -65.5857    1530.3063    299.11576   -422.20616    108.69414   -368.49146    294.19705 
311990000   3.1199e+08     287.2402    101167.02    1251.1344     0.867463   -1134.2668    2075.6588    1172.7044    921.86391    1658.8349   -295.76494    318.92558    62.532081    287.27152 
312000000     3.12e+08    288.61648    101167.02    1187.8523     0.867463   -1145.2887    2080.0169    569.24309    1927.9309    1066.3828    131.75262   -163.28717   -274.38743    288.64254 
312010000   3.1201e+08    294.99667    101167.02     373.1262     0.867463   -1148.1006     2148.504    150.69509     25.16725    943.51625   -609.09661   -93.487583   -941.31785     295.0248 
312020000   3.1202e+08    292.20307    101167.02    932.54269     0.867463   -1079.1819    2186.2041    1348.7577    1249.8952    198.97513   -133.86416   -103.81518   -1290.4212    292.23255 
312030000   3.1203e+08    289.92291    101167.02    905.41491     0.867463   -1122.3801    2117.5249    1677.9027     235.5821    802.75997   -325.49254     634.2176   -24.212829    289.94952 
312040000   3.1204e+08    285.35887    101167.02    501.89881     0.867463   -1034.0311    2154.8705   -121.16759    1006.8971    619.96691   -114.53584   -351.47154    464.80668    285.38452 
312050000   3.1205e+08    288.09738    101167.02     1161.721     0.867463   -1106.0063    2113.4983    1406.5909    746.96174    1331.6103   -110.98018    111.46967   -1216.3306    288.12475 
312060000   3.1206e+08     292.3105    101167.02    1381.7994     0.867463   -1116.0123    2150.5742    1656.5949    1666.8066    821.99679   -142.50446   -416.99492    435.49841    292.33916 
312070000   3.1207e+08    293.30659    101167.02     1200.721     0.867463   -1163.0764    2114.6415    64.251878    1697.8515    1840.0597   -527.30084   -101.22355   -1.5554819    293.33501 
312080000   3.1208e+08    295.32776    101167.02    965.58254     0.867463   -1129.5711    2170.7334    504.65622    1148.6381    1243.4533   -203.31193    463.42813    1096.7765    295.35406 
312090000   3.1209e+08    287.37905    101167.02    479.18079     0.867463   -1073.0511    2138.4262    1010.8612    498.55223   -71.871083   0.93720738    27.295137    128.12499    287.40663 
312100000    3.121e+08    296.76384    101167.02    1024.1729     0.867463   -1024.1069    2292.2458    689.00275    843.93255    1539.5834   -105.81172     480.1896   -176.89619     296.7891 
312110000   3.1211e+08    292.37145    101167.02    2055.4423     0.867463   -1184.4659    2082.8017    1707.8499    1865.7773    2592.6996   -780.53809   -201.56791   -89.688202    292.39949 
312120000   3.1212e+08    294.59878    101167.02     1461.321     0.867463   -1154.4686    2137.6896    1818.7011    1217.8415    1347.4204   -452.92357    163.21995   -13.701094    294.62693 
312130000   3.1213e+08     296.2698    101167.02    1038.1295     0.867463   -1063.3453    2247.4866    1475.6358    512.34898    1126.4036    198.40657    57.104678    -76.28706    296.29739 
312140000   3.1214e+08    290.74221    101167.02    1620.9495     0.867463   -1184.7861    2064.2746    2155.8401    1420.3238    1286.6846   -416.67395    73.728503   -22.154565    290.77074 
312150000   3.1215e+08     288.6495    101167.02    1194.5947     0.867463   -1104.5867    2121.0879    769.72796    1821.8949    992.16138   -658.17795   -139.06075    71.134633     288.6781 
312160000   3.1216e+08    287.92038    101167.02    1225.3941     0.867463   -1200.1394    2017.3872    1273.6772    866.79045    1535.7147   -343.92681    2.4463976   -805.39812    287.94455 
312170000   3.1217e+08    294.68399    101167.02     1055.853     0.867463   -1219.0112    2074.0991    1002.0944    1255.5752    909.88936   -126.47466    145.25552   -195.13477    294.71094 
312180000   3.1218e+08    283.33968    101167.02    862.87766     0.867463   -1115.1827    2051.1543     421.0889    1188.5507    978.99332   -679.95796    530.10952   -606.48034    283.36583 
312190000   3.1219e+08    289.78582    101167.02     1324.852     0.867463   -1099.4107    2138.9624    1106.9079    1263.8699    1603.7782    223.49145    100.33792    177.41678    289.81488 
312200000    3.122e+08    294.78019    101167.02   -592.82687     0.867463   -1132.2794     2161.906    -170.7345   -1357.1202   -250.62589   -562.27874    216.01516   -114.33868    294.80472 
312210000   3.1221e+08    292.05941    101167.02    1517.6434     0.867463   -1034.8232    2228.9573    1385.7217    1897.0505     1270.158   -222.35126    250.36288   -306.10615    292.08373 
312220000   3.1222e+08    294.54723    101167.02    1499.2296     0.867463   -1238.6984    2052.8837    1509.9725    1280.6816    1707.0347   -371.93015    179.23658    108.66674    294.57394 
312230000   3.1223e+08    296.29995    101167.02     1615.802     0.867463   -1100.7599     2210.409    1944.9857    1551.6541    1350.7661    32.591936   -774.06722   -686.42727    296.32993 
312240000   3.1224e+08    289.98173    101167.02    1501.2516     0.867463   -1096.6145    2143.9479    605.70063    2436.1402     1461.914     82.63014   -539.43132   -361.95839    290.01119 
312250000   3.1225e+08    293.42815    101167.02    1262.4582     0.867463   -1230.9081    2048.1682    1558.9729    1018.8071    1209.5945   -659.69048    270.92218    363.12824    293.45489 
312260000   3.1226e+08    294.33211    101167.02    114.96204     0.867463   -1138.4288    2150.7493   -434.84912   -633.97915    1413.7144   -422.84546   -202.70454   -987.84785    294.36169 
312270000   3.1227e+08    288.62509    101167.02    1388.2741     0.867463   -1169.0772    2056.3245    1660.6534    1898.0603    606.10875    55.913926    211.48281   -250.91767    288.65586 
312280000   3.1228e+08    296.51365    101167.02    1404.5193     0.867463   -1112.4561    2201.1008    1310.0134    1420.5911    1482.9533   -81.689991   -102.86833   -422.53318    296.53872 
312290000   3.1229e+08    294.89416    101167.02    1159.0512     0.867463   -1127.8475    2167.6115    1033.9897    1380.9825    1062.1815     679.6759   -57.494265   -161.37988    294.92101 
312300000    3.123e+08    299.65863    101167.02    465.41569     0.867463   -1135.9786    2212.7236    98.794542    1189.9322    107.52037   -208.75701    384.89502    95.329033    299.68655 
312310000   3.1231e+08    293.79426    101167.02    770.13795     0.867463   -1179.6883    2103.4793    518.58077    839.38585    952.44723   -130.75582   -488.85222   -255.21125    293.82186 
312320000   3.1232e+08    294.23315    101167.02    844.09008     0.867463   -1158.7065    2129.3657    760.36317    1430.8629    341.04416   -263.98387   -365.29471    -595.5068    294.26289 
312330000   3.1233e+08    301.76168    101167.02    700.11986     0.867463   -1097.4817    2274.7223    908.07214    677.38364     514.9038    58.817739   -361.77583   -542.13495    301.79411 
312340000   3.1234e+08    292.93089    101167.02     1474.297     0.867463   -1202.6685    2070.8508    2120.1511    1201.8436    1100.8962    348.89979   -250.78214   -313.46509    292.95774 
312350000   3.1235e+08    288.78081    101167.02    1461.2099     0.867463    -1108.676     2118.466    1892.7498    1059.8805    1430.9994     305.1329     453.3105   -378.59899    288.81168 
312360000   3.1236e+08    291.65462    101167.02    843.05152     0.867463   -1088.6448    2170.6122    933.27499    1069.5098     526.3698   -225.29858    115.72194    150.38288    291.68104 
312370000   3.1237e+08    288.97977    101167.02    1704.2419     0.867463   -1181.6452    2047.7201    1609.7709    1458.0845    2044.8704   -229.54507    601.06595   -708.02093     289.0075 
312380000   3.1238e+08    292.97234    101167.02    1822.2818     0.867463   -1081.5916     2192.391    1496.9439    2266.9704    1702.9312    512.02537    126.66711   -342.08041    292.99905 
312390000   3.1239e+08    294.05598    101167.02    1416.5875     0.867463   -1072.9352    2213.1571    1811.7946    1463.5191    974.44888   -347.67772    694.11921   -540.78756    294.08289 
312400000    3.124e+08    288.38587    101167.02    1881.6619     0.867463   -1177.1364    2045.5921    1812.4305    2353.2732    1479.2818    657.61391    32.178376   -85.151893    288.41289 
312410000   3.1241e+08    287.79992    101167.02    1118.6737     0.867463   -1080.9737    2135.2067    1177.7422    1131.5666    1046.7124   -262.35881   -64.483977    528.89328    287.82829 
312420000   3.1242e+08    290.99597    101167.02    853.31696     0.867463   -1124.4467    2127.4498    1573.0808    782.56249    204.30762   -773.19152    722.55032   -273.91675    291.02612 
312430000   3.1243e+08    291.69984    101167.02    776.34313     0.867463   -1155.1078    2104.6545    809.38433    405.33384    1114.3112   -147.38877    215.41718    825.29202    291.72765 
312440000   3.1244e+08     294.8263    101167.02    554.75659     0.867463   -1136.5955    2158.1052   -31.055031    788.83853    906.48627   -578.29302    -335.4204    138.46051    294.85164 
312450000   3.1245e+08    296.50735    101167.02    1777.5717     0.867463    -1213.931    2099.5555    2134.2486    1810.0314    1388.4352    16.173398    102.71768   -285.08945    296.53214 
312460000   3.1246e+08    295.97869    101167.02    1811.1661     0.867463   -1107.9626    2199.6162    1291.9253    2712.0362    1429.5367   -154.95916    53.564255     195.5601     296.0064 
312470000   3.1247e+08    291.82265    101167.02    1465.6509     0.867463   -1200.8744    2060.2603    1086.2977    1699.6607    1610.9943   -125.19175    132.14626    -145.4371    291.84899 
312480000   3.1248e+08    290.96354    101167.02    684.01816     0.867463   -1148.4959    2103.0383    237.84047    1361.8736    452.34037   -37.731482   -296.97277    675.30508    290.99417 
312490000   3.1249e+08    287.55558    101167.02    727.03964     0.867463   -1108.8243    2104.6256    261.13355    1177.6588    742.32659   -361.65261   -281.42078    253.87092    287.58411 
312500000    3.125e+08    287.72611    101167.02    522.29833     0.867463   -1220.8514    1994.5042    302.64515    698.25221    565.99764    824.62738   -416.87552    251.14967    287.75103 
312510000   3.1251e+08    295.77578    101167.02    997.99218     0.867463   -1201.3499    2103.9612    31.493304    1754.9508    1207.5324     16.84346    71.191747   -509.97587    295.79989 
312520000   3.1252e+08    290.42483    101167.02    674.96663     0.867463   -1203.1239    2042.3901    561.41419    1089.7698    373.71587   -641.02583   -566.31671    289.53601    290.45166 
312530000   3.1253e+08    296.15744    101167.02    1156.9844     0.867463   -1186.3602     2123.216    1091.1533    1166.4011    1213.3987    59.147968    246.73469   -191.35247    296.18663 
312540000   3.1254e+08    292.47737    101167.02    574.34254     0.867463   -1246.6195    2021.8317    81.010014    969.10737    672.91025   -488.88263    514.68454   -190.11907    292.50418 
312550000   3.1255e+08    292.21208    101167.02    433.60101     0.867463   -1184.0971    2081.3895    371.85012   -535.68066    1464.6336   -591.42622   -17.077674   -119.15589    292.23842 
312560000   3.1256e+08    304.41676    101167.02    1131.5659     0.867463   -1175.4464    2226.4282    1510.4048    940.93185    943.36123   -624.07682    231.51438   -295.47479    304.44709 
312570000   3.1257e+08    296.96774    101167.02    1208.2338     0.867463   -1143.8369    2174.7945    1523.0077    743.39663    1358.2972   -333.79887    273.27314   -391.05249    296.99836 
312580000   3.1258e+08    289.99701    101167.02    626.86473     0.867463   -1181.1404    2059.5927    286.17648    1017.9072    576.51052   -14.273488   -601.80401   -420.52965    290.02259 
312590000   3.1259e+08    296.03175    101167.02    338.41502     0.867463   -1055.0916      2253.08    206.43055    596.73802     212.0765   -480.44186    200.75033    59.980189     296.0628 
312600000    3.126e+08      292.133    101167.02    886.38803     0.867463   -1139.8136    2124.7893    1062.2495    319.15319    1277.7615    367.54123    472.28939   -524.70754    292.16484 
312610000   3.1261e+08     300.6326    101167.02    1355.3052     0.867463   -1130.7174     2228.869    1199.9845    1894.3789    971.55214    272.25406    475.63385   -113.92015     300.6555 
312620000   3.1262e+08    292.24794    101167.02    1124.1564     0.867463   -1196.7896    2069.0978    1332.0782    584.96072    1455.4303    126.33932    364.91085    -102.2692    292.27082 
312630000   3.1263e+08     288.0895    101167.02    1766.1895     0.867463   -1159.2748    2060.1417    2229.4665    1404.4111     1664.691    -104.7427   -328.08292   -23.415782    288.11585 
312640000   3.1264e+08    292.85985    101167.02    868.25174     0.867463   -1156.6117    2116.1138    972.91291    1659.0897   -27.247399   -809.99122     -342.731    12.811775    292.88748 
312650000   3.1265e+08    296.73128    101167.02    1353.0879     0.867463   -1133.3981    2182.5908    887.93699    1222.2511    1949.0756   -326.27308    247.00248    72.440133    296.75725 
312660000   3.1266e+08    291.58804    101167.02    245.67661     0.867463   -1200.7878    2057.7252    385.17139    1200.5905   -848.73211   -271.50377   -25.802098    204.89791    291.61687 
312670000   3.1267e+08    293.93146    101167.02    1073.9786     0.867463   -1152.9687    2131.7321    1720.9651    265.11948    1235.8511    62.149937    176.30464   -171.39091    293.95908 
312680000   3.1268e+08    292.30587    101167.02    703.37559     0.867463   -1120.1453    2146.3893     790.6983    401.87161    917.55685   -17.995235   -215.24598    33.948168     292.3344 
312690000   3.1269e+08    291.46958    101167.02    735.18404     0.867463   -1136.2098    2120.9794    750.79335    800.81131    653.94747   -178.08132    80.148325    334.61032     291.4986 
312700000    3.127e+08    286.45045    101167.02    1843.6752     0.867463   -1142.6125    2058.4875     2021.091    1633.8797    1876.0548    -119.1131   -149.22328    -34.46066    286.47876 
312710000   3.1271e+08    295.79405    101167.02    1637.9128     0.867463   -1206.4526    2099.0627    2954.6271    1511.0604    448.05088   -133.43472   -360.48368   -663.22185    295.82244 
312720000   3.1272e+08    292.12819    101167.02    928.49268     0.867463   -1101.1466    2163.4025    1014.4238    1466.1951    304.85911   -166.14731    284.08863   -315.80797    292.15748 
312730000   3.1273e+08    292.18352    101167.02    787.92817     0.867463   -1106.6327    2158.5347    236.67497    1374.9157     752.1938   -249.21722   -405.13159   -476.46338    292.21241 
312740000   3.1274e+08    298.94258    101167.02     1868.182     0.867463   -1049.8833     2290.817     2937.292    1540.6668    1126.5871    457.00022   -720.87138   -927.23109    298.97162 
312750000   3.1275e+08    297.57316    101167.02     1400.832     0.867463    -1090.362    2235.0351    1291.6609    2068.3881    842.44698    167.51944    354.86355   -197.07796     297.5997 
312760000   3.1276e+08    300.77771    101167.02    363.02964     0.867463   -1275.1824    2086.0256    550.38509    689.75788   -151.05405   -370.56328   -272.79188   -920.05968    300.80652 
312770000   3.1277e+08    289.67992    101167.02    876.38829     0.867463   -1199.9446     2037.245     205.1195    1635.9529    788.09247   -3.3331554    -394.9721    589.06559     289.7069 
312780000   3.1278e+08    297.57882    101167.02     392.9117     0.867463    -1103.579    2221.8813    239.17742    1551.5792   -612.02149   -184.37557    207.43537    143.13955    297.60797 
312790000   3.1279e+08    284.78331    101167.02    852.95272     0.867463   -1182.5826    1999.8872   -392.24057    1289.8889    1661.2099   -268.26209   -200.44874   -359.13338    284.81255 
312800000    3.128e+08    292.39581    101167.02    1893.3475     0.867463   -1151.3559    2116.1839    1733.6711    2044.8296    1901.5419    488.95005    1257.0502    245.11277    292.42724 
312810000   3.1281e+08    293.24149    101167.02    707.40064     0.867463   -1158.1736    2118.8167     727.6901     658.2236    736.28821    -44.97319    627.88289   -191.79919    293.26896 
312820000   3.1282e+08    291.07678    101167.02    1032.2763     0.867463   -1103.0809    2149.7187    1700.5446    752.40167    643.88263   -582.81506   -20.081017   -208.36115    291.10192 
312830000   3.1283e+08    295.21459    101167.02    1109.7192     0.867463   -1180.1409    2118.8989    1544.0636    844.23154    940.86254   -97.802492    211.74394    376.59735    295.24045 
312840000   3.1284e+08    293.54158    101167.02    486.49054     0.867463   -1118.7875    2161.5564    583.51613    89.293519    786.66197   -137.12679    388.81137    337.76732    293.56874 
312850000   3.1285e+08    292.89288    101167.02    1029.8866     0.867463   -1092.2228    2180.8719    1433.9961    555.93733    1099.7263   -310.63762     266.4079   -123.50853    292.91822 
312860000   3.1286e+08    294.87853    101167.02    604.65192     0.867463   -1146.0494     2149.235    699.00792    407.84509    707.10274    -460.9695    165.65632   -742.26539    294.90271 
312870000   3.1287e+08    292.49412    101167.02      203.739     0.867463   -1201.1361    2067.5023     404.6169   -3.5555293    210.15562    -468.8096     385.9656   -364.47804    292.52157 
312880000   3.1288e+08    295.35564    101167.02    1207.3005     0.867463   -1191.2122    2109.4039    1111.6609    1593.6358    916.60483   -13.511476     106.9794   -89.056208    295.37803 
312890000   3.1289e+08    294.61308    101167.02    1175.7308     0.867463   -1158.4518    2133.8662    1536.9352    1107.1743    883.08303   -153.59473    230.48122    558.63301    294.64239 
312900000    3.129e+08    289.49314    101167.02    1020.2889     0.867463   -1050.1664    2184.9358    1765.6724    1202.9211    92.273127   -72.452018   -204.07794     -310.185    289.52153 
312910000   3.1291e+08    290.93975    101167.02    1191.8035     0.867463    -1054.726    2196.5423    814.78858    1252.8424    1507.7794    139.22964    188.79393    597.01616    290.96726 
312920000   3.1292e+08    285.27186    101167.02     1113.643     0.867463   -1145.0096    2042.9197     109.7811    1580.2513    1650.8966   -622.76679   -571.24386   -639.14112    285.29885 
312930000   3.1293e+08    290.92785    101167.02    944.78968     0.867463   -1171.0144    2080.1209    927.34518    1008.0903    898.93359    85.206074   -375.42581    140.40683    290.95802 
312940000   3.1294e+08    287.15297    101167.02    1191.4487     0.867463   -1215.8639    1993.0869    1228.6415    849.95218    1495.7525   -445.47074   -403.91694    -242.3818    287.18208 
312950000   3.1295e+08    291.94452    101167.02    1159.4598     0.867463   -1176.5752    2085.9215    1150.0559    1228.8389    1099.4846   -473.34158     29.27141   -73.852599    291.97187 
312960000   3.1296e+08    297.80382    101167.02    1171.6127     0.867463   -1100.4436     2227.531    914.38004    1414.0013    1186.4568   -688.96231    143.13631   -438.46469    297.83356 
312970000   3.1297e+08    289.85482    101167.02    1438.7882     0.867463    -1137.572    2101.5721    1703.3359     1430.882    1182.1467    992.36896   -227.63954    37.151511    289.88252 
312980000   3.1298e+08    297.30938    101167.02    643.76616     0.867463   -1145.8981    2176.5511     620.0383   -239.73134    1550.9915    -274.3156   -165.87754   -147.36715    297.33794 
312990000   3.1299e+08    286.99858    101167.02    15.447348     0.867463   -1102.1019    2105.1235    615.97439   -359.63409   -209.99825    -14.73611    610.78667    148.37167    287.02796 
313000000     3.13e+08    286.86139    101167.02    689.83425     0.867463   -1104.4467    2101.2456     1646.154    415.24466    8.1040679    13.417003   -392.62784    93.042963    286.89023 
313010000   3.1301e+08    290.05886    101167.02    2232.9636     0.867463   -1187.8791    2053.5452    1856.2023    1582.3266     3260.362   -307.30919     421.6461   -44.125486    290.08735 
313020000   3.1302e+08      297.796    101167.02    1097.5824     0.867463    -1165.945    2161.9422    851.88401    1517.2776    923.58549   -403.09724    601.01409    76.158132    297.82584 
313030000   3.1303e+08    281.90517    101167.02    1263.6685     0.867463    -1185.163    1965.1433    822.66698    953.87869    2014.4599   -239.09909     579.7643   -70.513575    281.93317 
313040000   3.1304e+08    290.17575    101167.02    1315.0908     0.867463     -1133.75    2108.9805    1572.8283    1300.1308    1072.3134   -42.062094   -217.69498   -194.71718    290.20457 
313050000   3.1305e+08    291.74677    101167.02    640.19529     0.867463   -1114.1886    2146.0981   -49.203504    890.84347    1078.9459   -50.294271   -472.38488   -43.586684    291.77286 
313060000   3.1306e+08     286.5006    101167.02    1215.0234     0.867463   -1207.0344    1994.6261    2025.6409    462.15438     1157.275    322.69766     475.6934   -502.69457    286.52482 
313070000   3.1307e+08    290.07223    101167.02    852.43165     0.867463   -1161.6915    2079.8822     496.0557    1084.2249    977.01433    291.90762   -612.62207    -298.2102     290.0971 
313080000   3.1308e+08    293.16243    101167.02    1752.3522     0.867463   -1147.1057    2129.0012    2548.0344    1210.8911    1498.1311   -421.68297    253.90157    398.12107    293.18821 
313090000   3.1309e+08    291.54771    101167.02    1107.2741     0.867463   -1127.1622       2130.9    1919.2381    777.51036    625.07397    501.22937   -219.93584    109.74007    291.57089 
313100000    3.131e+08    292.28381    101167.02    972.06539     0.867463   -1150.4346    2115.8535    756.96368    499.55334    1659.6792   -447.46512    357.13743    379.68332     292.3096 
313110000   3.1311e+08    293.34998    101167.02    314.58839     0.867463   -1229.0057     2049.197   -545.29103    1043.5732    445.48301   -322.69888    450.48749   -358.17018    293.37548 
313120000   3.1312e+08    290.99017    101167.02    1185.1645     0.867463   -1187.0636    2064.7681    998.15474    1516.9109     1040.428   -10.978678   -405.87806   -111.95585    291.02171 
313130000   3.1313e+08    293.43814    101167.02    613.48834     0.867463   -1224.9926    2054.1953    -46.56135    840.24405    1046.7823   -243.08919    454.01187   -444.42591    293.46874 
313140000   3.1314e+08    286.95852    101167.02    1554.3591     0.867463   -1057.1669    2149.6108    1401.3797    1491.0899    1770.6076   -564.37753    127.86332   -216.96874    286.98567 
313150000   3.1315e+08    290.45369    101167.02    1607.0056     0.867463   -1113.0604    2132.7762    1365.5393    1335.6469    2119.8308   -70.006824    727.71519   -425.76615    290.48004 
313160000   3.1316e+08    297.17542    101167.02    1284.9464     0.867463   -1153.3168    2167.6355    1943.3277    1315.0391    596.47232   -284.01717    -513.1353    396.37875    297.20277 
313170000   3.1317e+08    297.89182    101167.02    1044.9127     0.867463   -1221.2369    2107.7212    751.95473    1222.9366    1159.8466   -586.24984    579.97952   -13.033258    297.92035 
313180000   3.1318e+08    290.41617    101167.02    1409.5292     0.867463   -1136.5048    2108.9124    1032.1336    1711.3624    1485.0916    217.74559   -315.50399   -326.67627    290.44444 
313190000   3.1319e+08    291.55071    101167.02    1522.5268     0.867463   -1174.3292    2083.7666    1642.4529     1431.143    1493.9846   -321.87991    401.86348    325.90242    291.57315 
313200000    3.132e+08    297.96571    101167.02    1506.6713     0.867463   -1171.5612    2158.2226    2221.9385    1163.8203     1134.255   -104.44649   -124.70428     399.3436    297.99418 
313210000   3.1321e+08    299.09866    101167.02    1563.0138     0.867463   -1185.0364    2157.4082    2016.2712    1571.6619    1101.1084     8.052074   -295.78837   -220.91499    299.12899 
313220000   3.1322e+08    290.51348    101167.02   0.31674613     0.867463   -1038.4893    2208.0154   -435.59019    445.58819   -9.0477592   -7.2847889   -497.23787     301.6565    290.54088 
313230000   3.1323e+08    290.72009    101167.02    1219.6977     0.867463   -1130.3401    2118.4735    1930.1194    1076.1009    652.87274    147.89434    35.323153   -109.14247    290.74692 
313240000   3.1324e+08    292.36639    101167.02    667.45371     0.867463   -1151.2861    2115.9249    181.81002    979.57871    840.97239   -833.57622    -262.9589    1171.8016     292.3971 
313250000   3.1325e+08    283.05938    101167.02     1125.205     0.867463   -1075.4605    2087.7441    126.87639    1492.0802    1756.6583   -563.89107     252.1326    357.18892    283.08899 
313260000   3.1326e+08    294.80008    101167.02    1073.3715     0.867463    -1178.327    2116.0806    1404.4258    922.34329    893.34529   -74.727539    5.3278206   -561.73162      294.827 
313270000   3.1327e+08    296.51658    101167.02    307.18767     0.867463   -1205.2775    2108.3122    168.64177    1070.0623   -317.14104    168.72675    436.82502   -339.30027    296.54246 
313280000   3.1328e+08    291.63499    101167.02    1361.1842     0.867463   -1100.4072    2158.6305    693.83542    1770.2204    1619.4967    189.76608    612.24777    599.67878    291.66542 
313290000   3.1329e+08    292.95494    101167.02    632.22152     0.867463   -1110.9148    2162.8733    1090.0623    391.38889    415.21333     269.1502   -323.18032    225.61336    292.98309 
313300000    3.133e+08    293.64782    101167.02    1090.5098     0.867463   -1120.1209    2161.4102    1608.1675    723.82796    939.53394   -566.15206    215.29403    317.33853    293.67543 
313310000   3.1331e+08    291.33286    101167.02    364.01373     0.867463   -1147.5364    2108.1249    259.53538    241.14956    591.35625   -660.46849     364.3575     86.48096    291.35785 
313320000   3.1332e+08     289.2994    101167.02    25.902571     0.867463   -1158.1739    2074.7634   -174.69474   -828.78941    1081.1919    178.15907    236.56444    754.78561    289.32548 
313330000   3.1333e+08    290.02901    101167.02    54.172288     0.867463   -1133.6603    2107.4304   -180.81077    455.73005   -112.40242    143.60285   -150.82482    -86.77895    290.05734 
313340000   3.1334e+08    292.53296    101167.02    1731.2988     0.867463   -1116.7877    2152.2847    2226.2116     1220.931    1746.7539   -528.35891    55.317893   -760.75121    292.55619 
313350000   3.1335e+08    294.47697    101167.02    1052.8866     0.867463   -1172.5892    2118.2078    1531.8345    949.79297    677.03232    200.89847    275.38928    406.54861    294.50462 
313360000   3.1336e+08    293.26935    101167.02    1588.3122     0.867463   -1238.1535    2039.1481    2041.6125    1322.4603     1400.864    157.22733    316.44693   -162.57294    293.29561 
313370000   3.1337e+08    291.45527    101167.02    1690.9936     0.867463   -1087.0853    2169.9439    1518.7096    1247.3037    2306.9673    563.64533   -89.631963    252.15572    291.48501 
313380000   3.1338e+08    291.73571    101167.02    1602.0246     0.867463   -1179.4935    2080.6697    2920.9027    1526.1329    359.03826   -395.53509   -55.147897   -297.44177     291.7644 
313390000   3.1339e+08    289.55777    101167.02    350.68989     0.867463   -1222.8476     2012.977    4.8012966    874.62322    172.64515    382.37432   -415.14734   -531.09313    289.58325 
313400000    3.134e+08    300.53123    101167.02    1659.1856     0.867463   -1170.2973    2188.1563    1276.5459    1415.4218     2285.589   -633.34307    364.69212    286.97006     300.5598 
313410000   3.1341e+08    290.67613    101167.02    466.84572     0.867463   -1085.1925    2163.1297    266.09199    761.05306    373.39212   -364.63736    469.99929   -33.206257    290.70253 
313420000   3.1342e+08    295.60981    101167.02    1262.6179     0.867463   -1199.8651    2103.5913    1428.8175    1034.4215    1324.6149    -435.9095    417.17211    647.60814    295.63788 
313430000   3.1343e+08    294.81405    101167.02    199.56018     0.867463   -1191.2523    2103.3114    397.17276    228.51106    -27.00328   -21.600274   -428.55586    285.41754    294.84226 
313440000   3.1344e+08    294.34178    101167.02    1336.0769     0.867463   -1199.7163    2089.5698    1746.6095    1342.5367    919.08448   -376.63588   -129.00864   -447.42099    294.37063 
313450000   3.1345e+08    294.59325    101167.02    769.23744     0.867463   -1158.6366    2133.4597    273.36164    832.10313    1202.2476   -680.91158   -157.80365   -60.859665    294.62399 
313460000   3.1346e+08    290.33242    101167.02     178.6212     0.867463   -1111.8808    2132.6006    196.83375    650.40704   -311.37718   -104.26798    530.34248   -266.84173    290.35873 
313470000   3.1347e+08    286.20687    101167.02      1013.42     0.867463   -1179.6812    2018.6968    1644.3241    57.039698    1338.8962   -626.00384   -286.40877    403.64506    286.23402 
313480000   3.1348e+08    291.18599    101167.02    891.23024     0.867463   -1174.8178    2079.2021    1479.8729     102.9188     1090.899    202.93303   -37.486042    122.91452    291.21107 
313490000   3.1349e+08    296.92969    101167.02    1245.6234     0.867463   -1108.4163    2209.7899    635.37205    1442.3649    1659.1334   -640.70922    209.87381    405.39516    296.96149 
313500000    3.135e+08    293.06238    101167.02    1910.2442     0.867463   -1123.4389    2151.5498    2352.4816    1329.3055    2048.9456   -747.93839   -427.70226    99.606324    293.09034 
313510000   3.1351e+08    294.54855    101167.02     648.9145     0.867463   -1109.8651    2181.7317    245.32002    487.20899    1214.2145   -244.99378   -56.839982    544.22344    294.57427 
313520000   3.1352e+08     293.8642    101167.02    1362.1952     0.867463   -1150.6353    2133.3139     1177.888    1273.7294    1634.9684   -712.66593   -25.361095   -40.706176    293.88992 
313530000   3.1353e+08    294.54911    101167.02    736.38824     0.867463   -1113.1584    2178.4446    700.79254    1016.4674    491.90483   -253.41391    373.30078    578.04714    294.57535 
313540000   3.1354e+08    293.70241    101167.02    878.26714     0.867463   -997.70257    2284.4386    435.21123    1404.2189    795.37133    179.47446    43.073057   -58.187228     293.7293 
313550000   3.1355e+08    295.21124    101167.02    1806.6477     0.867463   -1049.5713    2249.4311    1874.8933    2399.6509     1145.399   -282.00355   -59.213517    634.76322    295.23666 
313560000   3.1356e+08    294.59217    101167.02    369.15958     0.867463   -1150.3418    2141.7424    95.994751    444.80201    566.68197   -348.80847    -220.2338    11.070742    294.62266 
313570000   3.1357e+08    291.67031    101167.02    1673.2887     0.867463   -1108.2627    2151.1697    2118.2994    1011.6946     1889.872   -89.482139   -681.18903    -64.89649    291.69868 
313580000   3.1358e+08    295.03994    101167.02    684.29364     0.867463   -1181.2089    2115.8792    939.18905    440.49128    673.20059   -546.82659   -330.51768   -530.74873    295.06777 
313590000   3.1359e+08    291.31687    101167.02    -27.87171     0.867463   -1115.5555    2139.9271    247.31439    331.53307   -662.46259   -730.93115    374.73515   -54.565735    291.34623 
313600000    3.136e+08    288.21528    101167.02     599.7491     0.867463   -1175.9755    2044.8466    483.21209    798.26159    517.77362   -46.397692    166.72941    280.11712    288.24753 
313610000   3.1361e+08     291.3583    101167.02    905.51617     0.867463   -1160.6652    2095.2804    -556.8962    1216.2275    2057.2172   -154.84851    467.88976    600.34554    291.38688 
313620000   3.1362e+08    292.71868    101167.02    213.90697     0.867463   -1169.7873    2101.3606   -202.64362   -115.83828    960.20281   -892.83845    369.31276   -297.83008    292.74635 
313630000   3.1363e+08    295.90048    101167.02    1167.8594     0.867463   -1190.4932    2116.2115    571.59257    1432.8471    1499.1384    413.72608   -224.92044    243.20917    295.92966 
313640000   3.1364e+08    292.86844    101167.02    1464.8431     0.867463   -1215.3672    2057.4543    2130.2451    1029.2694    1235.0149   -11.871505     29.17049   -538.37791    292.89131 
313650000   3.1365e+08    295.42012    101167.02    1574.1506     0.867463   -1088.2711    2213.0656    2358.2963    950.23684    1413.9187    40.312111   -416.10096    115.16206    295.45154 
313660000   3.1366e+08    294.32985    101167.02    1279.2201     0.867463   -1189.0559    2100.0969    1783.1165    746.04105    1308.5027   -502.77501    194.99152     661.9851    294.35935 
313670000   3.1367e+08    291.79499    101167.02    609.74948     0.867463   -1127.0572    2133.7684    896.69941    577.74669    354.80232   -955.44511    150.23825   -690.14819    291.82258 
313680000   3.1368e+08    292.24004    101167.02    985.25162     0.867463   -1106.4212    2159.3779    1183.3781    1505.2667    267.11006   -1266.4025   -232.34167    334.65418    292.26708 
313690000   3.1369e+08    297.97708    101167.02    552.05611     0.867463   -1190.8193    2139.0915   -149.58304    1008.6973    797.05409   -513.26089   -820.65505   -492.76033    298.00652 
313700000    3.137e+08    293.12137    101167.02    1932.4991     0.867463   -1151.9519    2123.6961    2262.0975    1412.7355    2122.6643    503.09911    736.99132    432.77391    293.14815 
313710000   3.1371e+08    294.73189    101167.02    -6.586298     0.867463   -1160.6771    2132.9686   -228.15023   -296.93364    505.32498   -96.524493   -331.20467    194.18047    294.75976 
313720000   3.1372e+08    294.33094    101167.02     1461.015     0.867463   -1120.6993    2168.4656    1580.4491    854.80805    1947.7879     11.79298   -11.793566   -276.52559    294.35826 
313730000   3.1373e+08    295.61708    101167.02    677.29586     0.867463    -1112.498    2191.0397    1022.9158    206.51485    802.45694   -633.04002   -611.36022    52.284059    295.64523 
313740000   3.1374e+08    289.63709    101167.02    364.03503     0.867463   -1095.1156    2141.5954    279.58137    813.53832   -1.0145946   -760.32115    -78.51894    189.55604    289.66291 
313750000   3.1375e+08    292.77865    101167.02    1015.8368     0.867463   -1070.1479    2201.6701    1509.8433    1018.4835    519.18374   -630.69516     364.5903    223.57095    292.80309 
313760000   3.1376e+08    305.22543    101167.02    342.46872     0.867463   -1123.3676    2287.5439    -155.9296    250.04921    933.28655   -385.25793   -310.85233    51.680789    305.25657 
313770000   3.1377e+08    295.78856    101167.02    285.53378     0.867463   -1164.5964    2140.8575    119.02767    470.97974    266.59393   -437.53496   -110.79008    129.44264    295.81546 
313780000   3.1378e+08    291.80028    101167.02    842.93333     0.867463   -1192.7679    2068.1168    617.84763    959.54272    951.40963   -283.49944    -116.8888    22.121262     291.8272 
313790000   3.1379e+08    292.87905    101167.02    964.20829     0.867463   -1101.7269    2171.2131    1502.2228    1151.2523    239.14968    178.41378    337.31926    590.07436    292.90457 
313800000    3.138e+08    300.67076    101167.02    751.09995     0.867463   -1080.9764    2279.0364    1022.0881    425.25469    805.95704   -714.99223     124.2409    393.58365    300.70192 
313810000   3.1381e+08    291.37252    101167.02    1028.5037     0.867463   -1155.4714    2100.6331    878.03775    967.85149    1239.6217   -448.64974   -269.39208      349.925    291.39792 
313820000   3.1382e+08    303.64557    101167.02    675.08366     0.867463   -1116.1869    2277.0696    439.19801    611.78704    974.26592   -519.53187    444.29853    -646.9303    303.67599 
313830000   3.1383e+08    293.90863    101167.02    533.75827     0.867463   -1135.9181    2148.5275    665.61533    886.83695    48.822514   -847.74848   -532.07911    117.97331    293.93515 
313840000   3.1384e+08    290.94192    101167.02    750.22631     0.867463   -1130.8955     2120.397    970.54254    858.45264    421.68375   -926.36657    39.589861   -756.27994     290.9686 
313850000   3.1385e+08    291.19145    101167.02    1469.3664     0.867463   -1090.8077    2163.2733    1888.9575    1689.0422    830.09955     256.6859    96.246439    -549.9032    291.21881 
313860000   3.1386e+08    291.94826    101167.02    1012.8648     0.867463   -1161.9919    2100.5465    630.17749    1655.9319    752.48491   -210.85435   -440.37433    382.17103    291.97441 
313870000   3.1387e+08    296.02114    101167.02     276.8981     0.867463   -1117.9578    2190.0952    360.62579    458.36857     11.69995   -341.90716    239.37903   -110.79019    296.05019 
313880000   3.1388e+08    296.93683    101167.02    1042.4809     0.867463    -1167.534     2150.752    694.39371    542.71031    1890.3388   -275.40716   -115.60487   -75.733986    296.96644 
313890000   3.1389e+08    291.12441    101167.02    624.61707     0.867463   -1181.1179    2072.2139    1001.9974    665.91873     205.9351   -648.53663   -195.03459   -717.82703    291.15436 
313900000    3.139e+08    293.48904    101167.02    548.12283     0.867463   -1120.1073    2159.6495    75.889585    1007.5408    560.93808    51.566178    161.74879   -660.19187    293.51978 
313910000   3.1391e+08    294.20897    101167.02    1595.0491     0.867463   -1142.2864    2145.5156    1378.9578    1701.6813     1704.508   -663.04704    596.83847    438.25503    294.23827 
313920000   3.1392e+08     288.4982    101167.02    511.76471     0.867463   -1126.1712    2097.8126    1059.1968    158.74024    317.35712   -86.951318    260.46262   -136.70054     288.5266 
313930000   3.1393e+08    296.70261    101167.02    1565.7292     0.867463   -1076.7627    2238.9058    1727.1854    1969.3277    1000.6746    405.55233   -147.23416    449.27284    296.72774 
313940000   3.1394e+08    295.18398    101167.02    988.83606     0.867463   -1094.0983    2204.5995    1562.0051    704.41078    700.09229   -1104.3625    212.22181   -23.859619    295.20969 
313950000   3.1395e+08    296.14961    101167.02    844.30722     0.867463   -1121.1409    2188.3479   -68.543264    1198.3545    1403.1105   -438.43741    13.779203    12.360218    296.17579 
313960000   3.1396e+08     292.7482    101167.02    986.21601     0.867463   -1151.9382    2119.5396     1202.726    725.18111    1030.7409   -692.96159   -456.03905    132.63719    292.77577 
313970000   3.1397e+08    291.14533    101167.02    977.63529     0.867463   -1187.7725    2065.7931    1271.7171    670.31599    990.87276   -135.13188   -64.707973   -411.85717    291.17219 
313980000   3.1398e+08    289.36717    101167.02    1710.7158     0.867463   -1141.6445    2092.0501     1211.264    2035.9757    1884.9078   -319.94077   -331.73468   -437.97315    289.39219 
313990000   3.1399e+08    295.08837    101167.02    711.46113     0.867463   -1177.3757    2120.2536    689.82911    554.58308    889.97119   -462.25602   -303.51279   -78.320716    295.11839 
314000000     3.14e+08    287.53284    101167.02    1444.9774     0.867463   -1132.7301    2080.4658    1937.6779    1144.8814     1252.373   -280.43534    116.28295     342.8221    287.55968 
314010000   3.1401e+08    294.65636    101167.02    774.98949     0.867463   -1151.4181    2141.3834    367.64739    747.66457    1209.6565   -182.17453   -140.70449   -381.02093    294.68179 
314020000   3.1402e+08    290.84996    101167.02    879.67003     0.867463   -1165.8446    2084.4203    238.38079    1330.7173     1069.912   -506.63102    121.04696    23.682417    290.88194 
314030000   3.1403e+08    294.31328    101167.02   -389.92982     0.867463   -1098.3933    2190.5743   -1291.1238    19.872928    101.46144   -563.51466   -645.75307    419.20511    294.33966 
314040000   3.1404e+08    292.32689    101167.02    958.94265     0.867463   -1165.9767    2100.7929     627.9283    1069.3884    1179.5113   -84.623027    227.45798   -194.80046    292.35023 
314050000   3.1405e+08    287.52459    101167.02    752.10033     0.867463   -1157.9868    2055.1169    846.51662   -417.26635    1827.0507    471.12463    566.99542    114.17861    287.55116 
314060000   3.1406e+08     292.4559    101167.02    1577.8291     0.867463   -1118.4284    2149.7829    851.61075    2078.1015     1803.775    -56.61514   -453.65403    668.21056    292.48264 
314070000   3.1407e+08    293.69449    101167.02    1030.5164     0.867463    -1133.328    2148.7247    786.69499     1123.592    1181.2623   -490.12434   -629.23156    18.085083    293.72432 
314080000   3.1408e+08    289.71397    101167.02    725.20114     0.867463   -1110.2632    2127.3069    302.70936    803.54264    1069.3514    100.84126   -724.98773   -356.30459    289.73736 
314090000   3.1409e+08    292.11338    101167.02    948.42945     0.867463   -1121.3412    2143.0424    1428.1222    279.16137    1138.0048   -569.27158    878.48013    230.83444    292.13968 
[...]
509180000   5.0918e+08    291.89064    101167.02    501.25072     0.867463   -1182.5259    2079.3686    647.95798     850.4029    5.3912692   -728.05178     258.1825   -433.03065    291.89596 
509190000   5.0919e+08    292.91452    101167.02    333.85136     0.867463   -1158.4477    2114.8887    1422.1877   -368.66242   -51.971188    -408.9119    252.07062    691.15877    292.92523 
509200000    5.092e+08    293.99517    101167.02     1076.619     0.867463   -1154.7341    2130.6786    1119.8753     1637.399    472.58256    -342.4111   -350.82226    159.39906    294.00787 
509210000   5.0921e+08    297.52822    101167.02    1092.9823     0.867463   -1093.9879    2230.9068    878.66005    836.72937    1563.5575   -69.094471    674.80496   -279.52071    297.53877 
509220000   5.0922e+08    290.31426    101167.02    654.86146     0.867463   -1143.1082    2101.1701   -255.24675    714.11011     1505.721   -756.72747    -49.74811    279.68141    290.32293 
509230000   5.0923e+08    296.23854    101167.02    1176.5428     0.867463   -1209.4437    2101.0389    1150.2629    577.98956    1801.3759    444.84833   -513.68252    55.951779    296.25078 
509240000   5.0924e+08    294.69426    101167.02    1376.1004     0.867463   -1081.7551      2211.47    585.11071    1009.6909    2533.4995   -479.32103    -287.4479    612.22058    294.70676 
509250000   5.0925e+08    294.09539    101167.02    1294.5611     0.867463   -1152.9346    2133.5982    1923.5762    1406.2702    553.83679   -854.97319    104.74026    720.29417    294.10267 
509260000   5.0926e+08    298.04771    101167.02    1055.0381     0.867463   -1209.7191     2120.981    1506.3409    1020.0216    638.75194   -572.35157    99.451761   -212.63216    298.05703 
509270000   5.0927e+08    295.72126    101167.02     294.7797     0.867463   -1175.3921    2129.3098    329.61874    431.18212    123.53825   -783.21391   -259.73246    496.22484    295.73364 
509280000   5.0928e+08    294.12872    101167.02     1159.588     0.867463   -1149.6521    2137.2531    1583.7284    251.01291    1644.0227   -555.28048   -230.72962    -1039.029    294.13837 
509290000   5.0929e+08    294.26584    101167.02    1096.9182     0.867463   -1140.5519    2147.8855     1643.225     1597.325    50.204627   -193.12196    349.80578    164.91976    294.27883 
509300000    5.093e+08    283.82811    101167.02    653.54582     0.867463    -1161.743    2010.0522    575.31549    972.16179    413.16019   -420.21397    726.39332    40.092753    283.83934 
509310000   5.0931e+08    289.82174    101167.02    1231.4012     0.867463   -1138.9499    2099.8245    1440.3926    1170.9375    1082.8734   -662.02455   -402.89283   -199.61551    289.83048 
509320000   5.0932e+08    300.63385    101167.02    492.72008     0.867463   -1168.7258    2190.8746    397.88051     376.3836    703.89614   -210.28849      66.7949    565.59131    300.64358 
509330000   5.0933e+08    291.63434    101167.02    1425.7929     0.867463   -1177.1385    2081.8918    1671.6944    949.43092    1656.2533   -631.88735    202.94533    96.740543    291.64071 
509340000   5.0934e+08    293.81244    101167.02    784.08605     0.867463   -1156.1558     2127.215    768.76576    346.99593    1236.4965   -713.93194    347.89792    73.052086     293.8245 
509350000   5.0935e+08     296.4078    101167.02    61.290779     0.867463   -1255.9729    2056.4011   -931.71363    898.57057     217.0154     144.1629       404.77    -512.4775    296.41778 
509360000   5.0936e+08    290.94991    101167.02    1575.3826     0.867463   -1181.5079    2069.8738    694.26097    2072.5703    1959.3167   -108.29278    -303.5829   -567.96119     290.9582 
509370000   5.0937e+08     293.7561    101167.02     276.2673     0.867463   -1231.6261     2051.115    374.92565    552.50778   -98.631525   -633.88861   -29.600938    272.63248    293.76294 
509380000   5.0938e+08    296.21663    101167.02    691.13981     0.867463   -1152.1257     2158.112   -15.786132     1580.773    508.43258   -660.93677   -332.37992    490.52841    296.22839 
509390000   5.0939e+08    293.26088    101167.02    594.41541     0.867463   -1206.6255    2070.5815    157.35373    1250.5468     375.3457   -598.40886    530.29902   -830.25383    293.27182 
509400000    5.094e+08    290.87072    101167.02    654.74216     0.867463   -1164.9981    2085.4987    1071.3007    501.10729    391.81848   -282.35649    280.43693   -435.48252    290.88162 
509410000   5.0941e+08    292.95203    101167.02    576.14873     0.867463   -1243.6955    2030.0601    2051.0367   -369.33559    46.745118   -650.96992    175.27817    304.38847    292.96267 
509420000   5.0942e+08    288.17484    101167.02    864.21008     0.867463   -1187.0543     2033.316    605.72245    929.02475     1057.883   -144.07967   -397.46138    190.74096    288.18298 
509430000   5.0943e+08    294.99458    101167.02    417.67294     0.867463   -1151.4693    2145.1118    93.485975    206.14057    953.39229   -544.72736   -331.18908     478.4584    295.00528 
509440000   5.0944e+08     298.0628    101167.02    792.03871     0.867463   -1041.9311    2288.9376    381.15977    1801.1185    193.83783    383.18998   -775.47481   -5.6890063    298.07454 
509450000   5.0945e+08    296.90931    101167.02    482.50493     0.867463   -1128.6528    2189.3256    496.38622   -151.64973    1102.7783    358.80186   -102.78269    153.95796    296.91743 
509460000   5.0946e+08    291.18288    101167.02     1092.604     0.867463   -1152.7423    2101.2429    547.64053    1776.9949    953.17657   -449.07451   -335.01486   -30.643748    291.19536 
509470000   5.0947e+08    287.70949    101167.02     630.6911     0.867463   -1198.7277    2016.4422    216.00493    440.42306    1235.6453    -168.8179   -151.29517    88.467916    287.71802 
509480000   5.0948e+08    293.84123    101167.02    1225.9998     0.867463   -1217.4983    2066.1942    1082.5597    1683.9382    911.50157   -386.63643   -485.31594    -144.6861    293.85276 
509490000   5.0949e+08    294.49278    101167.02    427.63769     0.867463   -1123.6501    2167.3234   -472.39307    1271.3697    483.93647    -75.22038   -99.065639     -245.281    294.50253 
509500000    5.095e+08    291.15096    101167.02    632.26504     0.867463   -1179.9238    2073.7048    776.54583    782.94432    337.30498    -6.446579    135.71718   -22.467928    291.16004 
509510000   5.0951e+08    300.06139    101167.02    1271.3659     0.867463   -1110.2301     2242.973     1468.842    1112.9389    1232.3167    174.02043   -748.79928    815.69378    300.07197 
509520000   5.0952e+08    293.17984    101167.02    833.42428     0.867463   -1147.0494     2129.252    979.84582    1036.7149    483.71209    -468.1589   -77.358847    590.04611    293.19271 
509530000   5.0953e+08    296.51304    101167.02    708.64578     0.867463   -1137.2874    2176.2627    757.27522    1024.3554    344.30671    287.27633    178.77816     280.6512    296.52206 
509540000   5.0954e+08    303.02967    101167.02    720.33112     0.867463   -1114.7306    2271.6432    84.631419     1026.846    1049.5159   -472.09404   -423.50796    -115.2474    303.03939 
509550000   5.0955e+08    288.25875    101167.02    528.06657     0.867463   -1145.4977    2075.8103    836.38299    293.31122    454.50551   -620.69644    150.76842    189.34371    288.26829 
509560000   5.0956e+08    294.92275    101167.02    253.60069     0.867463   -1103.2931    2192.4855   -376.36049     375.3324    761.83015   -665.57957    640.55238    543.28623     294.9332 
509570000   5.0957e+08     291.0625    101167.02    342.23356     0.867463   -1198.5979    2054.0421    374.45268    921.92122   -269.67321   -54.324305    587.55079   -248.44212    291.07206 
509580000   5.0958e+08    296.36144    101167.02    1273.2323     0.867463   -1147.0404    2164.8155    1608.1913    1462.8969    748.60874     237.2037   -158.05728   -574.31847     296.3751 
509590000   5.0959e+08    300.21867    101167.02    1493.1626     0.867463   -1161.6158    2193.3449     1365.355    1446.5591    1667.5737   -1297.7911   -648.64661    252.12737     300.2302 
509600000    5.096e+08    297.49929    101167.02     1589.607     0.867463   -1110.7507    2213.8208    2115.7086    1683.1846    969.92788   -588.09255    823.78973     186.3795    297.51249 
509610000   5.0961e+08    290.85222    101167.02    919.82658     0.867463   -1069.2011    2181.0891    242.79758    1188.1748    1328.5073   -217.63339    309.46008    8.5189978    290.86237 
509620000   5.0962e+08    297.13408    101167.02    759.33856     0.867463   -1134.5334    2185.9569    178.00527    1138.4385    961.57189    412.52995    184.02889   -14.173985    297.14561 
509630000   5.0963e+08      298.729    101167.02    1213.1833     0.867463   -1193.7319    2144.5817    1200.6862    570.76737    1868.0963    232.40243     533.6023    13.365896    298.73686 
509640000   5.0964e+08    295.98879    101167.02    1659.4642     0.867463   -1145.2454    2162.4462    1758.4838    1988.1384    1231.7705    261.86092   -537.97653   -580.65625    295.99988 
509650000   5.0965e+08    287.40668    101167.02    1765.1278     0.867463   -1071.3652    2140.4209    2237.6033    1048.4909    2009.2892    -94.29328    -199.2051   -173.73655     287.4154 
509660000   5.0966e+08    294.55351    101167.02    1343.4119     0.867463   -1114.6561    2176.9961    992.45174    1435.7496    1602.0344    528.37392   -144.93514    211.29046    294.56475 
509670000   5.0967e+08    296.06699    101167.02    425.94255     0.867463   -1211.8734    2096.6921    330.42861    701.74328    245.65576    49.311076   -884.66933   -656.54825    296.07686 
509680000   5.0968e+08    295.76459    101167.02    935.83822     0.867463   -1119.9041    2185.2819    1196.8799    837.11894     773.5158   -648.36512   -488.10281   -88.465817    295.77457 
509690000   5.0969e+08    298.77603    101167.02    1646.9644     0.867463   -1214.2548    2124.5843    1672.8274    2062.1695    1205.8964   -978.76664    670.27215     620.7139    298.78243 
509700000    5.097e+08    289.55556    101167.02     671.6711     0.867463   -1185.8259     2049.974    408.61428    799.74755    806.65149    226.54337   -240.08396  -0.63504753    289.56827 
509710000   5.0971e+08    294.44825    101167.02    1333.8437     0.867463   -1156.4611    2134.0149    1275.8738    1417.8177    1307.8396    124.40151    259.74002   -43.468443      294.461 
509720000   5.0972e+08    292.31888    101167.02    1643.2255     0.867463   -1062.8861     2203.794    1484.8451     1599.403    1845.4283   -77.244822    96.640168    126.86399    292.33138 
509730000   5.0973e+08    296.32706    101167.02    1070.3873     0.867463   -1059.2533    2252.2184    1672.0698    74.580463    1464.5116    16.968275    -628.6646    261.41971    296.33677 
509740000   5.0974e+08      290.922    101167.02     1714.511     0.867463   -1117.7679    2133.3019    1603.6412    1723.3184    1816.5734   -197.31166    27.983232    640.17948    290.93257 
509750000   5.0975e+08    298.55632    101167.02    1288.9869     0.867463   -1169.1037    2167.2801    540.88618    1704.2973    1621.7771    40.326914    554.54878   -586.28587    298.56644 
509760000   5.0976e+08    287.12492    101167.02    410.27679     0.867463   -1199.0785    2009.5588    744.74171      279.821    206.26765    4.0760515    10.243025    299.27395    287.13576 
509770000   5.0977e+08    295.24319    101167.02    1505.4555     0.867463   -1128.8388    2170.5206    739.04837    2168.7797    1608.5383   -72.587284    300.67697    186.78622    295.25236 
509780000   5.0978e+08    285.16701    101167.02      739.074     0.867463   -1094.8471    2091.9105    1326.5432    813.59172    77.087046   -359.80345     154.6016   -767.88942    285.17785 
509790000   5.0979e+08     283.1353    101167.02    548.67289     0.867463   -1095.6672    2068.3859    -97.00467    1097.0799    645.94347   -109.27081    175.61893   -53.300269    283.14339 
509800000    5.098e+08    287.30004    101167.02    597.78912     0.867463   -1057.5681    2153.0262   -151.61648    409.16771    1535.8161    346.76442    42.847308    10.743853    287.30929 
509810000   5.0981e+08    293.81576    101167.02    647.41747     0.867463   -1183.0604    2100.3474    594.09275     717.6019    630.55776   -260.88227   -170.65646    314.03403    293.82964 
509820000   5.0982e+08    291.74659    101167.02    462.29582     0.867463   -1095.9992    2164.2856    365.27233    901.23142    120.38372    178.10669   -574.54586    54.196626    291.75591 
509830000   5.0983e+08    299.37526    101167.02    612.00552     0.867463   -1050.5354    2295.0002    358.73208    838.51448       638.77   -141.07531    263.64375    117.04062    299.38749 
509840000   5.0984e+08    287.90143    101167.02    274.07085     0.867463    -1052.185    2165.1298   -143.37977    1210.0131   -244.42079   -577.34874    120.77122    168.68024    287.91281 
509850000   5.0985e+08    290.20106    101167.02    1338.8977     0.867463   -1128.2792    2114.7341    1316.8773    1895.7246    804.09125    244.01258   -168.04533    321.39624    290.21006 
509860000   5.0986e+08    295.63708    101167.02    1291.6001     0.867463    -1075.114    2228.6471     1175.115    464.95014    2234.7352    183.34443   -461.78036    333.26062    295.64832 
509870000   5.0987e+08      295.044    101167.02     446.2682     0.867463   -1164.0978    2133.0358    527.79911   -696.77057    1507.7761   -178.49545   -236.58144   -149.99501     295.0568 
509880000   5.0988e+08    295.96472    101167.02    1564.0218     0.867463   -1068.8784    2238.5442    1561.2384    1650.6948    1480.1321    1084.4682   -183.21185    274.92705    295.97625 
509890000   5.0989e+08    295.19554    101167.02    1216.2582     0.867463   -1075.6663    2223.1606    868.51381     2029.705    750.55569   -311.11498    -112.1381   -868.42875    295.20579 
509900000    5.099e+08    294.15913    101167.02    427.20764     0.867463   -1148.4908    2138.7542   -324.03272    710.36206    895.29359   -255.60058   -563.40587   -491.74984    294.16985 
509910000   5.0991e+08    293.65991    101167.02    1229.0539     0.867463   -1206.3734    2075.2928    1025.1469    1985.3314    676.68341    109.14659    532.68086   -399.23371    293.67202 
509920000   5.0992e+08    291.81739    101167.02    224.90464     0.867463   -1180.1735    2080.9025    21.984209    212.95524    439.77448   -575.06468   -410.21671    277.28803    291.82613 
509930000   5.0993e+08    291.17326    101167.02     1516.222     0.867463   -1167.8296    2086.0482    716.06897    1924.6748    1907.9222   -318.90712     17.41276   -1027.6834     291.1805 
509940000   5.0994e+08    285.94345    101167.02    408.58161     0.867463   -1150.4808    2044.9535    1058.0937    300.94814   -133.29704   -618.01491   -26.167801   -76.150521    285.95321 
509950000   5.0995e+08    299.60744    101167.02    576.16429     0.867463   -1203.7018    2144.4284    523.79958    808.20145    396.49183   -833.83286   -53.031596    192.95697    299.62056 
509960000   5.0996e+08    292.07706    101167.02    1364.0091     0.867463   -1069.2808    2194.6969    973.08218     1268.741     1850.204   -52.555282    203.76155    257.33843    292.08659 
509970000   5.0997e+08    295.23631    101167.02    635.67305     0.867463   -1086.3428    2212.9397    264.01545    959.62992    683.37378    33.704854    98.476054    175.56763    295.24775 
509980000   5.0998e+08    299.82917    101167.02    1038.2349     0.867463   -1081.8214    2268.7866    1569.3212    1226.7124      318.671    55.799575   -557.79965   -69.364383    299.83913 
509990000   5.0999e+08    294.40799    101167.02    1416.5267     0.867463   -1109.9561    2180.0699    522.04448    1866.7786     1860.757    243.06165    394.43925    -266.9134    294.41573 
510000000      5.1e+08    295.45993    101167.02    1502.0028     0.867463   -1212.7344    2089.0471    851.43434     1951.538     1703.036    6.6002473    5.1039337   -110.53182    295.46805 
Loop time of 29859.8 on 48 procs for 100000000 steps with 3750 atoms

Pair  time (%) = 10318.1 (34.5551)
Bond  time (%) = 2120.39 (7.10115)
Neigh time (%) = 5353.6 (17.9291)
Comm  time (%) = 8749.78 (29.3029)
Outpt time (%) = 0.99038 (0.00331676)
Other time (%) = 3316.97 (11.1085)

Nlocal:    78.125 ave 91 max 64 min
Histogram: 2 1 3 5 11 10 5 7 3 1
Nghost:    1310 ave 1340 max 1277 min
Histogram: 1 0 2 6 12 13 8 5 0 1
Neighs:    6358.67 ave 7420 max Generated thermo.dat
Done!
stress
average  178.331
square average  32575.8
number of blocks  500
variance  1.24406948278623087523
pxx
average  899.314
square average  810645
number of blocks  500
variance  1.93872607864030136690
pyy
average  1014.81
square average  1.03122*10^06
number of blocks  500
variance  1.66172434537139763239
pzz
average  979.414
square average  960840
number of blocks  500
variance  1.78225509060852453495
xx
average  2216.76
square average  4.91468*10^06
number of blocks  500
variance  1.14464177802489805854
yy
average  2166.05
square average  4.69193*10^06
number of blocks  500
variance  .56106594977774226002
zz
average  2165.75
square average  4.69065*10^06
number of blocks  500
variance  .59487393622514678130
xx
average  -603.15
square average  365897
number of blocks  500
variance  2.05284071471704788964
yy
average  -453.287
square average  206669
number of blocks  500
variance  1.54912596711823277086
zz
average  -488.478
square average  239938
number of blocks  500
variance  1.62925965763594600826
rm: cannot remove `running.average.out': No such file or directory
stress
average  178.462
square average  35621.9
number of blocks  4000
variance  .97123819889870476613
average  180.421
square average  36418.3
number of blocks  9000
variance  .65545257977471820560
average  185.565
square average  38394.5
number of blocks  14000
variance  .53185193797575978050
average  185.111
square average  38198.2
number of blocks  19000
variance  .45492148998770280003
average  184.448
square average  37879.8
number of blocks  24000
variance  .40097460933746582220
average  183.124
square average  37382.1
number of blocks  29000
variance  .36425174242832245580
average  181.777
square average  36867.3
number of blocks  34000
variance  .33538486544653179279
average  180.432
square average  36361
number of blocks  39000
variance  .31236457069527111406
average  179.768
square average  36095.2
number of blocks  44000
variance  .29305080912236486652
average  178.801
square average  35751.9
number of blocks  49000
variance  .27782325900632934440
average  178.331
square average  35593.8
number of blocks  50000
variance  .27538534597904805726
average  178.331
square average  35593.8
number of blocks  50000
variance  .27538534597904805726
average  178.331
square average  35593.8
number of blocks  50000
variance  .27538534597904805726
average  178.331
square average  35593.8
number of blocks  50000
variance  .27538534597904805726
average  178.331
square average  35593.8
number of blocks  50000
variance  .27538534597904805726
average  178.331
square average  35593.8
number of blocks  50000
variance  .27538534597904805726
average  178.331
square average  35593.8
number of blocks  50000
variance  .27538534597904805726
average  178.331
square average  35593.8
number of blocks  50000
variance  .27538534597904805726
average  178.331
square average  35593.8
number of blocks  50000
variance  .27538534597904805726
average  178.331
square average  35593.8
number of blocks  50000
variance  .27538534597904805726
pressure, stress.strain, ktensor, virial are all concatenated
averages computed will all accumulated data until now
4912 min
Histogram: 1 1 1 5 8 11 7 9 4 1

Total # of neighbors = 305216
Ave neighs/atom = 81.3909
Ave special neighs/atom = 6.26667
Neighbor list builds = 11150289
Dangerous builds = 0
System init for write_restart ...

real	996m25.213s
user	0m0.069s
sys	0m0.321s
