LAMMPS (10 Feb 2015)
Read molecule SQL:
  30 atoms with 4 types
  29 bonds with 1 types
  34 angles with 1 types
  31 dihedrals with 2 types
  6 impropers with 1 types
Reading restart file ...
  restart file = 10 Feb 2015, LAMMPS = 10 Feb 2015
  triclinic box = (112.339 112.339 112.339) to (157.661 157.661 157.661) with tilt (-3.41061e-13 0 0)
  3 by 4 by 4 MPI processor grid
  3750 atoms
  3625 bonds
  4250 angles
  3875 dihedrals
  750 impropers
250 atoms in group endatoms
60 atoms in group samplechains
Resetting global state of Fix shear1 Style nvt/sllod from restart file info
Neighbor list info ...
  1 neighbor list requests
  update every 1 steps, delay 0 steps, check yes
  master list distance cutoff = 10.3
Setting up run ...
Memory usage per processor = 4.70598 Mbytes
Step dummytim Temp Volume Press Density PotEng TotEng Pxx Pyy Pzz Pxy Pyz Pxz myT 
310000000      3.1e+08    295.97669    93093.952    3380.0942     0.942689   -1201.0583    2106.4981    2675.3942    3769.0996    3695.7887   -941.61534   -122.73658    76.906312    295.97465 
310010000   3.1001e+08    291.65614    93093.952     3989.006     0.942689   -1223.2962    2035.9777    2643.0505    5035.0419    4288.9257   -967.86498    339.42221   -358.01943    291.65746 
310020000   3.1002e+08    285.55996    93093.952    4728.4674     0.942689   -1180.4619    2010.6869    4211.4718    5521.1635    4452.7668   -754.43348    288.56776    244.47234     285.5617 
310030000   3.1003e+08    292.78821    93093.952    3967.7264     0.942689   -1214.0907    2057.8342    4089.3436    3969.0252    3844.8106    69.862016   -67.626918    188.37055    292.79169 
310040000   3.1004e+08    292.06742    93093.952    5162.0284     0.942689   -1163.2979    2100.5722    5177.1998    5717.2611    4591.6243   -1052.6202   -598.78129   -357.79486    292.06866 
310050000   3.1005e+08    290.06505    93093.952    3208.8756     0.942689   -1165.1744    2076.3191    2362.3394    3899.4637    3364.8236   -876.84235   -183.78854    165.18884    290.06303 
310060000   3.1006e+08    291.91359    93093.952    5111.0115     0.942689   -1240.9896    2021.1613    4359.7147    5813.9199       5159.4   -1303.0133    364.89342   -228.05438    291.91269 
310070000   3.1007e+08    287.53783    93093.952    4896.3088     0.942689   -1205.3733    2007.8783    5030.5249    4754.5254    4903.8761   -315.46412   -840.15458   -96.054813    287.53674 
310080000   3.1008e+08    287.17902    93093.952    3830.8096     0.942689   -1151.6128     2057.629    1753.6737    5196.0214    4542.7338   -570.71899    363.70201     420.1071    287.17864 
310090000   3.1009e+08    293.08144    93093.952    4375.1176     0.942689   -1247.2321    2027.9697    4144.5352    5225.2841    3755.5335    160.98193   -177.11746     100.0449    293.07836 
310100000    3.101e+08    292.05598    93093.952    3732.4042     0.942689   -1195.8111    2067.9311    1929.4873    4020.9296    5246.7958   -1132.1103    499.61028   -207.52964     292.0491 
310110000   3.1011e+08    284.81819    93093.952    3950.7972     0.942689   -1230.6141    1952.2454    3254.1931    4704.7751    3893.4233   -994.38668    -604.1437   -466.70158    284.81904 
310120000   3.1012e+08    288.05337    93093.952    4541.6506     0.942689   -1216.6183    2002.3944    4319.3567    4870.4346    4435.1605   -451.95488    588.63137    116.58172    288.05548 
310130000   3.1013e+08    286.71714    93093.952    4440.5287     0.942689   -1172.5465    2031.5338    3808.3875    4946.2407    4566.9577    -611.2072    1048.8219    216.63877    286.72006 
310140000   3.1014e+08    284.51011    93093.952    3264.1275     0.942689   -1125.8023    2053.6144    2396.9955    3486.5809     3908.806   -944.09247    864.24357   -150.11205    284.51249 
310150000   3.1015e+08     294.4141    93093.952    3741.7959     0.942689   -1194.4301    2095.6642    2871.1923    3783.2982    4570.8972   -1168.5456    195.24244    522.83901    294.41156 
310160000   3.1016e+08    291.80606    93093.952    4626.9088     0.942689   -1152.5279    2108.4214    4213.5212    4336.4491     5330.756   -463.71141   -344.32466    225.65632    291.80565 
310170000   3.1017e+08    295.53292    93093.952    4196.1337     0.942689   -1213.0074    2089.5898    3159.9822    4184.7801    5243.6387   -1108.1165   -189.38892   -474.13008    295.53325 
310180000   3.1018e+08    291.49696    93093.952    4364.1739     0.942689   -1211.2331     2046.262    4476.4262    4264.1804    4351.9153   -1140.9949    175.30768    230.59875    291.49338 
310190000   3.1019e+08    289.60213    93093.952    3845.4149     0.942689   -1154.3832    2081.9371    3946.9252    4242.9744    3346.3451   -559.73007   -225.48659   -8.0163545    289.59887 
310200000    3.102e+08    290.42322    93093.952    3759.1641     0.942689   -1243.2305    2002.2654    2619.8923    4139.1649    4518.4351   -1511.1707    682.02851    26.441882    290.42265 
310210000   3.1021e+08    293.63507    93093.952    3866.4106     0.942689   -1213.7718    2067.6168    2897.0752    4791.9052    3910.2515   -100.05584    139.85713   -141.46579    293.63503 
310220000   3.1022e+08    296.21526    93093.952    4922.1778     0.942689   -1223.7298    2086.4925     4965.784    5222.0228    4578.7266   -289.98136    411.25255    259.38159    296.21553 
310230000   3.1023e+08    294.12845    93093.952    3986.5431     0.942689   -1132.1022       2154.8    3388.4948    4670.6581    3900.4765   -818.21897    37.515508    214.68976    294.12947 
310240000   3.1024e+08    288.34745    93093.952     4681.779     0.942689   -1185.9222     2036.377    4766.8697    5072.2232     4206.244   -557.62053   -1104.1783    170.65213    288.34272 
310250000   3.1025e+08    290.94338    93093.952    4218.6267     0.942689   -1131.6633    2119.6456    3857.0099    4491.1027    4307.7674   -307.57896    6.1276415     242.6356     290.9433 
310260000   3.1026e+08    294.33818    93093.952     3582.455     0.942689   -1280.2189    2009.0271    2846.6312    4653.3645    3247.3692   -350.19811    431.45371   -319.47017    294.33663 
310270000   3.1027e+08    296.27572    93093.952    4437.1702     0.942689   -1110.2151    2200.6829    5043.4743    4178.2592     4089.777    505.79016   -733.72534     554.0419    296.27333 
310280000   3.1028e+08    291.19839    93093.952    4360.3743     0.942689   -1199.0868    2055.0718    3738.7861    5065.0608    4277.2759   -1290.7962    160.83772   -127.90556    291.19792 
310290000   3.1029e+08    289.41216    93093.952     3193.633     0.942689    -1182.703    2051.4944    2663.3868    3987.8684    2929.6437    34.939423     412.8222   -60.341902    289.41352 
310300000    3.103e+08    291.33497    93093.952    4834.3307     0.942689   -1111.3336    2144.3512    5215.8895    4466.1162    4820.9864     -56.5036   -1054.7138   -322.63593    291.33457 
310310000   3.1031e+08    292.86684    93093.952     4386.408     0.942689   -1177.8898    2094.9139    3803.2078    4288.6215    5067.3946   -1059.3507    393.28524   -887.17351    292.86671 
310320000   3.1032e+08    291.48465    93093.952    4021.9427     0.942689   -1291.6442    1965.7133    4420.1269    3897.0298    3748.6715   -514.71332    220.94706    291.76494    291.48527 
310330000   3.1033e+08      301.578    93093.952    4706.5879     0.942689   -1187.2771    2182.8742    3846.5491    5327.2045      4946.01   -624.71792   -123.65323    47.085779    301.57539 
310340000   3.1034e+08    287.58675    93093.952    4520.1132     0.942689   -1231.5798    1982.2185    3912.0199    4704.9229    4943.3968   -745.32365    259.25716   -612.64622    287.58596 
310350000   3.1035e+08    299.99888    93093.952    3802.5898     0.942689   -1135.1485     2217.356    3230.3627    3508.5695    4668.8372    -314.5034     24.53459   -492.47681    299.99644 
310360000   3.1036e+08    293.58335    93093.952    4503.3838     0.942689   -1181.6536    2099.1571    3730.4008    4995.8161    4783.9345    158.61825    390.23008    295.60828    293.57992 
310370000   3.1037e+08    288.11228    93093.952    5064.2128     0.942689   -1124.5265    2095.1446    5526.1696    4719.7643    4946.7044    243.07829   -679.85326   -363.39179    288.11505 
310380000   3.1038e+08    292.59377    93093.952    4283.2969     0.942689   -1211.1885    2058.5635    4066.1108    4403.4539    4380.3261   -1177.6148    318.69341    874.60503    292.59766 
310390000   3.1039e+08    293.34165    93093.952    4513.4528     0.942689   -1078.1859    2199.9237     5485.334    3462.0156    4593.0087   -1362.4657   -327.14886    758.67208    293.34166 
310400000    3.104e+08    295.58404    93093.952    4704.6588     0.942689   -1197.2189    2105.9495    3817.0803    5094.8312    5202.0649   -1057.4921    944.84538    665.98841    295.58582 
310410000   3.1041e+08    297.20701    93093.952    3862.9776     0.942689   -1225.0698    2096.2355    3129.8997    3938.5409    4520.4922   -965.71925    471.75262    117.94648    297.21103 
310420000   3.1042e+08    284.79688    93093.952    3982.5984     0.942689   -1129.3976    2053.2238    3762.6384    4530.9696     3654.187    56.740766   -216.40531    200.88675    284.79798 
310430000   3.1043e+08    288.27908    93093.952    4931.8589     0.942689   -1121.2052    2100.3298    5011.7316    4837.6345    4946.2108   -421.13116   -317.32276    96.025699    288.27878 
310440000   3.1044e+08     296.3843    93093.952    4614.7761     0.942689   -1202.7649    2109.3466    4219.7088    4236.0224     5388.597    -643.8398    144.04216   -658.30768    296.38773 
310450000   3.1045e+08    292.49209    93093.952    3897.2242     0.942689   -1171.0335    2097.5822    3910.6504    4800.5128    2980.5096   -941.95782   -418.72257   -721.36333    292.49463 
310460000   3.1046e+08    292.23226    93093.952    5068.8826     0.942689   -1169.7902     2095.922    5888.3612    4598.8804    4719.4061   -715.63255    85.403485   -325.87655    292.23348 
310470000   3.1047e+08    295.30741    93093.952    4532.1297     0.942689   -1161.8003    2138.2767    4491.7742    5548.8989    3555.7162   -850.04684   -340.85824    198.31921    295.30897 
310480000   3.1048e+08    291.57221    93093.952    4809.3027     0.942689   -1217.3443    2040.9918    5063.4552    5111.6478     4252.805   -487.45548   -11.777402   -124.43882    291.57501 
310490000   3.1049e+08     296.4804    93093.952    3974.7398     0.942689    -1145.509    2167.6763    3276.7894    3731.2549     4916.175   -725.49667   -751.97418   -1002.6247    296.48116 
310500000    3.105e+08    295.67274    93093.952    5298.8617     0.942689   -1150.6794    2153.4802    6587.6413     5415.524    3893.4199   -1188.1568   -185.05533    9.9460562    295.67264 
310510000   3.1051e+08    292.38854    93093.952    3801.0931     0.942689   -1173.4481    2094.0105    3025.6025      5687.53    2690.1467   -642.10828   -498.06521    95.913901    292.38798 
310520000   3.1052e+08    284.84245    93093.952    3722.8485     0.942689   -1122.2386    2060.8921    1964.1858     4727.149    4477.2108   -598.10217    -683.0566    127.88476    284.84172 
310530000   3.1053e+08    296.07045    93093.952    5005.6967     0.942689   -1089.1411     2219.463    5419.1334    5012.6738    4585.2827    -571.5292    835.58603   -385.87907    296.07141 
310540000   3.1054e+08    293.30248    93093.952    4126.9991     0.942689    -1149.597    2128.0749    3568.5895    4346.3349    4466.0729   -717.03913   -667.17251   -403.66458    293.30526 
310550000   3.1055e+08    300.99552    93093.952    4267.0499     0.942689   -1155.7264    2207.9157      4057.41    5562.1229    3181.6167   -1036.3173    373.05395   -702.33603     300.9972 
310560000   3.1056e+08    289.86085    93093.952    4900.4831     0.942689   -1247.3098    1991.9017    4442.3834    5408.0513    4851.0145   -148.65228   -97.309396   -241.43709    289.86002 
310570000   3.1057e+08    288.21213    93093.952    5241.6946     0.942689   -1172.8266    2047.9604    4235.6595    5476.6357    6012.7887   -1348.2501    732.81696    841.05814    288.21094 
310580000   3.1058e+08    298.80494    93093.952    5450.3709     0.942689   -1108.4622    2230.6999    5222.8973    5072.3213    6055.8941   -228.75513    301.97365   -20.869502    298.80265 
310590000   3.1059e+08    293.84095    93093.952    3976.5587     0.942689   -1239.3077    2044.3816    3683.2765    5028.5405     3217.859   -1028.7706   -395.18944   -525.28659    293.83648 
310600000    3.106e+08    296.17157    93093.952     3633.973     0.942689   -1200.9816    2108.7525    2541.0175    3693.0832    4667.8183   -1369.4344   -771.83976    428.39865    296.17051 
310610000   3.1061e+08     292.7347    93093.952    4080.8081     0.942689   -1172.5245    2098.8025    2986.1733    4660.4231    4595.8278   -1125.7592   -449.93115   -604.62623    292.73101 
310620000   3.1062e+08    294.76728    93093.952    4841.5128     0.942689   -1126.2168    2167.8243    4818.0042    4449.3984    5257.1356   -1034.9894   -345.06832    142.33437    294.77041 
310630000   3.1063e+08    296.46238    93093.952    4261.9049     0.942689   -1114.8176    2198.1663    3341.5283    4620.2343    4823.9522    -759.0078   -969.12042   -57.381884    296.46193 
310640000   3.1064e+08    296.08298    93093.952    3534.0513     0.942689    -1167.878    2140.8661     2610.613    4276.0191    3715.5219   -299.20564    234.22952    -423.3576    296.08139 
310650000   3.1065e+08    288.35827    93093.952    4891.5614     0.942689   -1137.2298    2085.1903    5848.5096    4247.3937    4578.7809   -331.47979   -140.57259    646.78672    288.35855 
310660000   3.1066e+08    291.13689    93093.952    4468.7935     0.942689   -1195.4852    2057.9861    5782.0694    3671.9233    3952.3878   -1009.1422    370.31478    597.49241    291.13588 
310670000   3.1067e+08    291.73301    93093.952    3640.9847     0.942689   -1130.7877    2129.3452    2712.9764    4352.1963    3857.7815   -704.49299    16.418545   -589.63761    291.73285 
310680000   3.1068e+08    296.03708    93093.952     3869.326     0.942689   -1237.7038    2070.5273    3836.1619    4485.8766    3285.9395   -503.93567    851.57088    412.28494    296.03778 
310690000   3.1069e+08    298.61734    93093.952    3921.5398     0.942689   -1188.6282    2148.4375    3871.5689    3363.3018    4529.7488   -748.48672    207.86782    76.453682    298.61839 
310700000    3.107e+08    289.89032    93093.952    3712.2521     0.942689   -1288.8742    1950.6666    2708.0663    4034.8769     4393.813   -327.11328    44.933268   -797.95738    289.89425 
310710000   3.1071e+08    295.59504    93093.952    4326.6046     0.942689   -1247.5172    2055.7742    3572.9309    3981.5043    5425.3786   -1412.1102   -37.720163    705.95745    295.59311 
310720000   3.1072e+08    291.89133    93093.952    3493.3014     0.942689    -1127.999    2133.9032    1972.7234    4760.5023    3746.6786   -1243.1141    107.89652   -43.773405    291.89233 
310730000   3.1073e+08    294.77928    93093.952    3463.0415     0.942689   -1098.5321    2195.6431    2513.6133    4407.2788    3468.2324   -771.71058    79.647298    630.01018    294.77561 
310740000   3.1074e+08    296.84895    93093.952    4150.9197     0.942689   -1231.7509     2085.553    3852.1955    4900.6816    3699.8821   -931.83275    348.43644   -354.28274    296.84772 
310750000   3.1075e+08    302.00046    93093.952    4701.6047     0.942689   -1131.0709    2243.8014    4345.2451    4734.2978    5025.2712   -727.73579    201.96363   -499.59786    302.00144 
310760000   3.1076e+08    290.14428    93093.952    4417.6377     0.942689   -1057.5863    2184.7925    3874.6165    4654.4884    4723.8082   -396.21249   -621.76953    472.44222    290.14052 
310770000   3.1077e+08    292.33695    93093.952    4541.1228     0.942689   -1117.7346    2149.1475    3346.1602    4665.9041    5611.3042    -406.7693   -167.19685   -41.339531    292.33667 
310780000   3.1078e+08    291.41547    93093.952    4459.4977     0.942689   -1130.2231    2126.3614    4512.0194    4089.6124    4776.8613   -835.00302    375.33833    123.20027    291.41374 
310790000   3.1079e+08    294.28737    93093.952    4727.4995     0.942689   -1095.3701     2193.308    4416.7602    5309.9024    4455.8359   -753.93586    447.83453    281.89794    294.28609 
310800000    3.108e+08    291.92704    93093.952    4212.6642     0.942689   -1162.3705    2099.9308    4355.0618    3057.7933    5225.1375   -129.34328   -71.073021     638.0772    291.92418 
310810000   3.1081e+08    295.20007    93093.952    3508.7301     0.942689   -1217.6747    2081.2029    3839.7083    3468.7904    3217.6916    -370.9506    130.33872    187.02895     295.2002 
310820000   3.1082e+08    297.18828    93093.952    4047.3323     0.942689   -1186.6119    2134.4841    3911.6491    4118.1421    4112.2058   -25.597622    342.31656   -446.32347    297.18814 
310830000   3.1083e+08    294.59255    93093.952    4355.6026     0.942689   -1162.8855    2129.2031    4449.3701    4651.2906    3966.1471   -103.92098   -412.86961    -525.9228    294.59479 
310840000   3.1084e+08    293.82677    93093.952    4468.8641     0.942689   -1162.6359    2120.8949    4051.2567    4959.3119    4396.0238   -387.91956    587.68173   -410.17707    293.82765 
310850000   3.1085e+08    291.55943    93093.952    4660.4937     0.942689   -1226.9703    2031.2229    4086.9287    4773.1972    5121.3553   -869.57304    -317.8022   -40.186278    291.55828 
310860000   3.1086e+08     297.8627    93093.952    4615.9597     0.942689   -1182.4331    2146.1995    4696.1841    4417.9296    4733.7653   -69.869269    802.76088    218.99378     297.8628 
310870000   3.1087e+08    299.09999    93093.952    4592.7622     0.942689   -1078.9602    2263.4992    4362.6419    4110.7359    5304.9088   -1124.5623    26.945258    518.70778    299.10112 
310880000   3.1088e+08     292.5424    93093.952    4242.7384     0.942689   -1154.2238    2114.9542     4387.017    4677.4085    3663.7897   -668.72949   -423.66877   -477.12464    292.54526 
310890000   3.1089e+08    295.83537    93093.952    4332.4476     0.942689   -1266.8398    2039.1373    3560.4949    4349.7888    5087.0591   -505.09848    460.02163    137.84407    295.84099 
310900000    3.109e+08    291.58416    93093.952    4231.5885     0.942689   -1157.1315     2101.338    4534.7204    4271.3292    3888.7161   -676.59515    411.00801    28.844229    291.58732 
310910000   3.1091e+08     288.3612    93093.952    4105.1809     0.942689     -1188.81    2033.6428     2531.143    5179.8489    4604.5509   -94.804263    329.33426    213.89099    288.36069 
310920000   3.1092e+08     289.1009    93093.952    3058.1605     0.942689   -1145.7033    2085.0157    2913.3004    3631.7561     2629.425   -449.72776    -21.24753   -284.90603    289.09861 
310930000   3.1093e+08    301.06537    93093.952    4465.6746     0.942689   -1134.8707     2229.552    3623.5719    5169.5185    4603.9335    19.711888   -391.44523      166.304    301.06487 
310940000   3.1094e+08    293.11837    93093.952    3453.1501     0.942689   -1193.3357    2082.2788    2881.6601    3909.7947    3567.9955   -911.15181   -16.142005    124.29682    293.12053 
310950000   3.1095e+08     291.8463    93093.952    4196.9704     0.942689   -1162.2635    2099.1355    4260.7292    4277.8237    4052.3584   -851.31583    609.32741   -306.67961    291.84907 
310960000   3.1096e+08     300.0234    93093.952    4432.8872     0.942689   -1118.7551    2234.0235    3429.2728    5548.6226    4320.7662   -206.50144     377.9056   -219.88617    300.02023 
310970000   3.1097e+08    289.04945    93093.952    4375.9075     0.942689   -1171.7455    2058.3986    3513.5723    5168.2619    4445.8884   -877.58246   -856.75367    1013.4765    289.05101 
310980000   3.1098e+08    291.89545    93093.952    4631.5605     0.942689   -1092.3818    2169.5664     4736.477    4726.9277    4431.2769    239.30914   -130.71928    312.54352    291.89639 
310990000   3.1099e+08    291.30015    93093.952    4464.9457     0.942689   -1131.4888    2123.8069    4389.5856    4603.6942    4401.5572    -389.5092   -171.68171    41.129665    291.30154 
311000000     3.11e+08    289.11723    93093.952    4300.6779     0.942689      -1093.6    2137.3015    3721.8042    4563.6862    4616.5433   -671.40045   -86.505925   -27.040451    289.11591 
311010000   3.1101e+08    288.11801    93093.952    3968.2691     0.942689   -1179.1979    2040.5372    3102.0228    4861.3841    3941.4005   -1704.3977    507.67744    264.96206    288.11957 
311020000   3.1102e+08    296.41443    93093.952    4097.0128     0.942689   -1131.9933    2180.4549    3882.4964    3931.2519      4477.29    -523.2958   -345.35263    523.76824    296.41459 
311030000   3.1103e+08    287.01717    93093.952    3617.7688     0.942689   -1150.0161    2057.4171    3209.0737    3747.7962    3896.4364   -582.69993   -41.653196    334.51307    287.01658 
311040000   3.1104e+08    294.39305    93093.952    4278.2747     0.942689   -1148.0879    2141.7712    3885.6208    5245.8497    3703.3535    76.208108    598.29311    663.71779    294.39276 
311050000   3.1105e+08    290.56162    93093.952    3106.1402     0.942689   -1175.7283    2071.3143    2913.4475    2863.9479    3541.0253   -932.25455    302.63212    224.93434    290.56318 
311060000   3.1106e+08    289.80557    93093.952    4149.4175     0.942689   -1139.3028    2099.2909    3275.2163    5743.5181    3429.5183   -816.74989    78.953884    588.27108     289.8033 
311070000   3.1107e+08    290.23161    93093.952    3689.8721     0.942689   -1110.9424    2132.4123    4364.8841     3866.801    2837.9313    -640.9258   -765.67613    198.35674    290.22839 
311080000   3.1108e+08    294.17785    93093.952    5069.4249     0.942689   -1119.5116    2167.9426    4524.3736    5134.0019    5549.8992   -274.46558    711.91558   -423.65311    294.17555 
311090000   3.1109e+08    287.37463    93093.952    4555.0505     0.942689   -1210.0673    2001.3605    4913.9521    4170.1566    4581.0427    36.728675    -428.1429   -583.03676    287.37886 
311100000    3.111e+08    296.79793    93093.952    4129.5031     0.942689   -1152.1885    2164.5453    4215.0613    4611.1606    3562.2874    -248.9692    539.99733    565.77542    296.79921 
311110000   3.1111e+08    289.90195    93093.952    3692.1047     0.942689    -1171.661    2068.0098    2855.6635    3917.4532    4303.1972   -469.41021    346.82156     508.4401    289.90061 
311120000   3.1112e+08    289.45603    93093.952    5225.0699     0.942689   -1150.3676    2084.3201    5074.4679    4831.4667    5769.2752   -68.100265    243.65475    127.71026    289.45705 
311130000   3.1113e+08     293.0522    93093.952    4331.0712     0.942689   -1231.2682    2043.6069    4908.2052    3770.9507    4314.0578     279.9845    424.90789    589.49146    293.05381 
311140000   3.1114e+08    292.32857    93093.952    3821.5835     0.942689    -1083.581    2183.2074    3384.3112    4467.0545    3613.3849   -674.07226   -324.29934    348.86152    292.32925 
311150000   3.1115e+08    289.51973    93093.952    4386.9602     0.942689   -1188.0379    2047.3615    4665.1967    4999.7038    3495.9801     471.1356    177.92722   -118.17852    289.52246 
311160000   3.1116e+08    298.57255    93093.952    4432.8974     0.942689   -1103.7557    2232.8095    4266.1431    4225.2868    4807.2624    -301.0318   -325.64708    143.28311    298.57596 
311170000   3.1117e+08    289.51258    93093.952     5425.159     0.942689   -1205.9977    2029.3218    6945.4569     4965.138     4364.882   -1045.9225   -12.966404   -1271.1697    289.51167 
311180000   3.1118e+08    292.32864    93093.952    4448.8273     0.942689   -1096.9829    2169.8063    3770.4117    5156.4311    4419.6391   -760.23072   -714.61299   -550.04534    292.32609 
311190000   3.1119e+08    295.32034    93093.952    5088.8564     0.942689   -1002.1927    2298.0289    4497.8874    5242.4182    5526.2638   -1072.9177   -371.73194    447.77148    295.32444 
311200000    3.112e+08    297.64656    93093.952    4285.3437     0.942689   -1212.5434    2113.6738    3849.6876     4517.835    4488.5085   -1041.3137    78.062649    295.85785    297.64567 
311210000   3.1121e+08    298.85544    93093.952    4078.4871     0.942689   -1034.8196    2304.9069    4526.8781    3889.7146    3818.8686   -406.81297    420.01132   -63.044751    298.85802 
311220000   3.1122e+08     296.1228    93093.952    3781.0398     0.942689   -1086.8034    2222.3857    3521.1054    3832.6577    3989.3562   -106.87215     118.4935   -557.17819    296.12327 
311230000   3.1123e+08     290.3054    93093.952    5107.1895     0.942689   -1248.3929    1995.7864    5449.9018    4877.0799    4994.5868   -75.036713    42.842829    -492.6137    290.30552 
311240000   3.1124e+08    296.87838    93093.952    4626.7109     0.942689   -1103.8021    2213.8307    4453.0221     4183.636    5243.4746   -460.35149    301.77043    754.12536    296.87981 
311250000   3.1125e+08    296.44025    93093.952    4151.3692     0.942689   -1173.9433    2138.7933    3057.1434    5028.6688    4368.2953   -853.22062   -244.13707     230.2084     296.4415 
311260000   3.1126e+08    292.98757    93093.952    3802.9407     0.942689   -1126.1358    2148.0169    4212.3388    3540.7016    3655.7818   -546.27145    144.61485   -557.26542    292.99044 
311270000   3.1127e+08     284.1324    93093.952    4188.3451     0.942689    -1150.389    2024.8068    4607.5411    4103.2385    3854.2557   -949.10331    319.83828   -733.70367    284.13204 
311280000   3.1128e+08    288.76118    93093.952    3938.4317     0.942689   -1208.0008    2018.9219     4015.291    3414.6739    4385.3302   -808.46397    253.55116    333.13754     288.7617 
311290000   3.1129e+08    302.37611    93093.952     3717.547     0.942689     -1160.23    2218.8402    1953.4449    5249.7888    3949.4073   -848.34539    437.46425   -1.8837665    302.37349 
311300000    3.113e+08    294.05248    93093.952    3447.9555     0.942689   -1172.9781    2113.0751    3170.1753    3562.8507    3610.8406   -819.07347   -322.69377   -744.47112    294.05429 
311310000   3.1131e+08    292.93187    93093.952    4705.6206     0.942689   -1166.5922    2106.9381     4357.155    4970.6622    4789.0446   -451.13449   -103.93166    365.06569    292.93308 
311320000   3.1132e+08    294.22072    93093.952    4511.5092     0.942689   -1098.2416    2189.6917     3695.935    5112.7163    4725.8764   -1069.1909    481.45148   -412.28465    294.21973 
311330000   3.1133e+08    296.00008    93093.952    4514.4989     0.942689   -1089.5285    2218.2892    4025.9693     4763.584    4753.9436   -333.02819    68.379795   -44.702215    296.00014 
311340000   3.1134e+08    291.97427    93093.952    3691.1144     0.942689   -1096.1034    2166.7257    2897.2088    3930.7254    4245.4089   -1207.3019    448.60798    916.74418    291.97268 
311350000   3.1135e+08    288.96004    93093.952    5098.2225     0.942689    -1160.009    2069.1359    4994.6843    4944.8185    5355.1646   -275.42714   -503.48845   -96.541289    288.96054 
311360000   3.1136e+08    290.86611    93093.952     5006.686     0.942689    -1097.568    2152.8773    5910.3188    4483.9342    4625.8051   -689.66181    71.341226    823.78683    290.86467 
311370000   3.1137e+08    289.64856    93093.952    4518.6449     0.942689     -1051.14    2185.6991    4189.0654    4667.7804     4699.089    354.39161    648.74546   -352.54749    289.65003 
311380000   3.1138e+08    282.40136    93093.952    4142.3583     0.942689   -1168.3855    1987.4658    3180.8943     4745.617    4500.5636   -1071.1043    418.76562   -76.504379    282.40493 
311390000   3.1139e+08    296.72738    93093.952     4893.093     0.942689   -1062.4124     2253.533    4769.7251    5225.5431    4684.0107   -848.39706     457.9491   -119.40724     296.7257 
311400000    3.114e+08    292.23513    93093.952    4071.3613     0.942689   -1076.0817    2189.6625    3729.5855    4514.2357    3970.2627    215.73956   -177.57807   -586.91671    292.23616 
311410000   3.1141e+08    292.94643    93093.952    4184.8425     0.942689    -1077.717    2195.9761    4602.8451    3837.5865    4114.0959   -1585.4329     -171.484   -1083.7327    292.94722 
311420000   3.1142e+08    293.48909    93093.952    5307.7932     0.942689   -1109.2424    2170.5149    4988.9084    5679.1269    5255.3442   -193.12946    210.57136   -42.020118    293.49193 
311430000   3.1143e+08    291.70487    93093.952    4592.1132     0.942689    -1168.797    2091.0216    3479.2396    4893.9145    5403.1855   -1070.8226   -405.84333    217.18189    291.70417 
311440000   3.1144e+08    296.39505    93093.952    4318.5522     0.942689   -1035.1825     2277.049    4141.2147    5648.0595    3166.3825   -387.98635    327.44965    84.212351    296.39499 
311450000   3.1145e+08     297.4912    93093.952    4513.6579     0.942689   -1179.0793    2145.4018    2827.2575    5660.7182    5052.9981   -240.36613   -237.85254    440.17946    297.49031 
311460000   3.1146e+08    292.89201    93093.952    4967.7227     0.942689   -1135.1108    2137.9741    4385.7152    5545.4942    4971.9585   -1207.3709    252.09784   -194.09138    292.89495 
311470000   3.1147e+08    297.21238    93093.952     4232.356     0.942689   -1093.3501    2228.0152    2639.0519    5046.2387    5011.7776   -492.56871    108.96282   -952.11278    297.21368 
311480000   3.1148e+08    288.35529    93093.952    3955.5204     0.942689   -1126.6821    2095.7046    4861.2758    3716.9831    3288.3023   -1257.3617   -160.87404   -49.456984    288.35338 
311490000   3.1149e+08    288.77348    93093.952     4457.812     0.942689   -1124.3918    2102.6683    5251.6553    4367.3885    3754.3923    829.74917   -269.69933    1003.1685    288.77185 
311500000    3.115e+08    289.84768    93093.952      5114.44     0.942689   -1156.9753     2082.089    4775.0896    5628.2871    4939.9434    291.18865   -1185.5397   -448.35883    289.84903 
311510000   3.1151e+08    294.25704    93093.952    4936.4925     0.942689   -1118.8755    2169.4636    4791.6491    4967.8267    5050.0016   -732.04229   -477.68532   -230.49409    294.25274 
311520000   3.1152e+08    295.61368    93093.952    4236.2175     0.942689    -1160.288    2143.2117    4386.6151    4166.0111    4156.0264   -592.21473   -156.51745    -520.9526    295.61221 
311530000   3.1153e+08    294.80276    93093.952    3959.8492     0.942689   -1132.8737     2161.564    4376.5721    3997.4383    3505.5373   -194.76994    553.99458   -30.656583    294.80267 
311540000   3.1154e+08    289.20244    93093.952    4705.9587     0.942689   -1086.6245    2145.2292    4903.3203    5010.7318     4203.824    26.945293    -444.0759    -834.7932    289.20076 
311550000   3.1155e+08    293.42874    93093.952    3708.5049     0.942689   -1140.7331    2138.3497    4366.3157    3164.8452    3594.3538   -270.06658   -285.05828    316.64626    293.42805 
311560000   3.1156e+08    296.06899    93093.952    4202.5033     0.942689   -1069.7082    2238.8796     4397.581    3534.9535    4674.9754   -845.03685   -19.841449    146.44826    296.06643 
311570000   3.1157e+08     290.0118    93093.952    4579.1059     0.942689   -1173.1087    2067.7897    4584.2628    3541.2627    5611.7923   -566.14432     546.8119   -587.13287    290.01398 
311580000   3.1158e+08    297.66193    93093.952    5052.6008     0.942689    -1112.009      2214.38    4382.9504    6059.2406    4715.6115   -393.16008    242.91766    24.900499    297.66154 
311590000   3.1159e+08    290.26916    93093.952    3473.5541     0.942689   -1154.7638    2089.0106    2324.9851    4059.9103    4035.7669   -1133.3943   -860.19582   -793.12488    290.27315 
311600000    3.116e+08    297.05084    93093.952    4227.0634     0.942689   -1128.9036    2190.6565    4080.3306    4219.7067     4381.153   -793.71215   -208.38817   -200.30702    297.05088 
311610000   3.1161e+08    290.98742    93093.952    4699.4689     0.942689   -1165.5078    2086.2931    4742.1402      4129.69    5226.5764   -1152.5233    422.84531   0.80038945    290.98615 
311620000   3.1162e+08    293.10822    93093.952    3896.1416     0.942689   -1130.0663    2145.4347    4096.0311    4292.7976    3299.5961   -338.79535    168.55808    454.33625    293.10899 
311630000   3.1163e+08    294.48975    93093.952    3542.8504     0.942689   -1201.3342    2089.6056    2325.7669      4644.07    3658.7143   -1542.4039    137.21058    41.375814    294.48846 
311640000   3.1164e+08    290.36218    93093.952    3902.4822     0.942689   -1171.3602    2073.4538    4535.6665    2832.9216    4338.8584   -481.06142   -208.35774    -939.2762    290.36318 
311650000   3.1165e+08    295.39574    93093.952    3985.5838     0.942689   -1160.5513    2140.5129    4699.0995    3351.8264    3905.8255     218.2176   -614.49603   -658.76323    295.39678 
311660000   3.1166e+08    303.05057    93093.952    4053.9309     0.942689   -1142.6031    2244.0042    4021.5192    4549.5793    3590.6941   -253.49106   -362.55298   -302.23118    303.04891 
311670000   3.1167e+08    288.77233    93093.952    3626.7999     0.942689   -1168.6723     2058.375    2551.6887    3675.5708    4653.1402   -784.94813   -301.89393   -476.44767    288.77421 
311680000   3.1168e+08    292.03242    93093.952    5200.8705     0.942689   -1098.7927    2164.6862     4695.638    5427.8711    5479.1022    151.05927     83.77828    668.45415    292.03843 
311690000   3.1169e+08    289.57022    93093.952    3964.7523     0.942689    -1109.582    2126.3817    3455.1578    4625.4974    3813.6018   -330.95569   -2.2278796   -464.51388    289.56874 
311700000    3.117e+08    297.52219    93093.952    4423.2453     0.942689    -1117.814    2207.0134    3703.9989    4737.8868    4827.8501   -52.504809    342.50509     110.2232    297.52524 
311710000   3.1171e+08    298.95877    93093.952     3640.429     0.942689   -1152.7499    2188.1314    2474.2315    3611.8791    4835.1765   -1008.1727    49.361738    578.58176    298.95845 
311720000   3.1172e+08    302.84378    93093.952    5065.0281     0.942689   -1140.0475     2244.249    5625.8078    5947.4205    3621.8561   -377.18878   -38.596415    750.28746    302.84275 
311730000   3.1173e+08    292.74209    93093.952    5348.9348     0.942689   -1199.9912    2071.4184    5113.9836    5988.2383    4944.5824    446.26878   -77.816207    131.64689     292.7438 
311740000   3.1174e+08    293.82722    93093.952     4207.528     0.942689    -1187.379    2096.1569     4825.647    4287.3411    3509.5959    559.20039   -220.77942   -121.69951    293.82677 
311750000   3.1175e+08    292.56047    93093.952     4971.979     0.942689   -1219.9641    2049.4158    4108.8567    5398.4908    5408.5896    340.04893   -128.26746    56.164009    292.56255 
311760000   3.1176e+08    295.13099    93093.952    4492.4507     0.942689   -1147.8958    2150.2098     4041.989    4871.8391     4563.524   -164.57013   -290.92715    226.54664    295.13143 
311770000   3.1177e+08    293.22569    93093.952    4608.4703     0.942689   -1072.4907    2204.3231     5407.019    4288.9013    4129.4905   -584.70513    -138.5047   -639.59633    293.22595 
311780000   3.1178e+08    292.45068    93093.952    4905.9662     0.942689   -1173.4215    2094.7314    4346.7087    5663.4666    4707.7234   -559.74986    144.30249   -758.31377    292.45173 
311790000   3.1179e+08    296.09173    93093.952    4255.1397     0.942689   -1199.6353    2109.2065    4505.9411    4809.7077    3449.7702   -204.40017   -353.34483   -23.927718    296.09129 
311800000    3.118e+08    292.80988    93093.952    4213.0091     0.942689   -1202.8113    2069.3558    3332.3677    4827.7795    4478.8802   -560.74392    727.09471    571.73465    292.80979 
311810000   3.1181e+08    292.34138    93093.952    4829.9384     0.942689   -1153.8475    2113.0841     4590.409    4262.8865    5636.5198    271.21917   -226.89978    172.61671    292.34321 
311820000   3.1182e+08    293.11018    93093.952    3900.5855     0.942689   -1202.1506    2073.3723    3769.9225    4113.1971    3818.6371   -143.22421   -322.32198   -298.03015      293.109 
311830000   3.1183e+08    294.30649    93093.952    4209.2436     0.942689   -1209.0647    2079.8271    4031.4651    4540.5632    4055.7023   -682.68225    199.37121   -441.56381    294.30953 
311840000   3.1184e+08    292.63089    93093.952    4733.3204     0.942689   -1179.7121    2090.4547    4320.2904    5131.9736    4747.6972   -228.17754   -723.06002    172.24318    292.62799 
311850000   3.1185e+08    293.32104    93093.952    4518.6883     0.942689   -1245.7984    2032.0808    4526.7646    4768.6084    4260.6919    -467.6548    157.23949   -522.79743    293.32151 
311860000   3.1186e+08    293.21265    93093.952    3426.3545     0.942689   -1248.1793    2028.4887    3495.3262    2844.7707    3938.9667    -63.28976    235.69229   -427.42587    293.21485 
311870000   3.1187e+08    291.41283    93093.952    3582.8989     0.942689    -1236.158    2020.3969    3027.9162    3917.4168    3803.3638   -373.93617    272.30759   -207.74512    291.41139 
311880000   3.1188e+08     295.7646    93093.952    4622.7578     0.942689   -1187.5937    2117.5925    4382.7539    4626.0099    4859.5095   -63.646228     250.4109    769.30982    295.76507 
311890000   3.1189e+08    295.19222    93093.952     4391.667     0.942689    -1147.092    2151.6978    3852.4658    4143.4653    5179.0698   -726.14843     -176.165    65.217804    295.19119 
311900000    3.119e+08    301.74012    93093.952    4639.8635     0.942689   -1197.5404    2174.4227    4383.2979    5099.1604    4437.1322   -293.59162    828.26637    81.080564    301.74221 
311910000   3.1191e+08    294.46672    93093.952    4219.3242     0.942689   -1166.9902    2123.6922    4009.0477    4676.6591    3972.2658   -590.23793    656.66862    582.62316    294.45959 
311920000   3.1192e+08    291.45904    93093.952    3366.9113     0.942689   -1277.3609    1979.7105      3595.12    4279.4317    2226.1821   -527.61809   -508.52949   -222.26355     291.4562 
311930000   3.1193e+08     296.0459    93093.952    4429.6644     0.942689   -1198.3653    2109.9645    4186.7794    4669.8703    4432.3436   -410.08098    21.555721     189.7236    296.04811 
311940000   3.1194e+08    290.43083    93093.952     3707.649     0.942689   -1179.3435    2066.2376     3812.592    3866.7971     3443.558   -231.76702   -77.300483   -336.29366    290.42983 
311950000   3.1195e+08    287.24941    93093.952    3882.0878     0.942689   -1232.1137    1977.9149    3192.1023     4915.809    3538.3521   -1607.6337   -61.607817    542.44234    287.25191 
311960000   3.1196e+08    301.91201    93093.952    3840.7002     0.942689   -1140.7986    2233.0852     3725.946    3716.0539    4080.1006    174.13738   -464.15183    64.986944    301.91326 
311970000   3.1197e+08    293.63035    93093.952    4379.2747     0.942689   -1185.7313    2095.6046    4168.2033    3843.8454    5125.7754   -321.77384    728.74867    459.59093    293.63384 
311980000   3.1198e+08    295.24694    93093.952    4429.7089     0.942689   -1142.5611    2156.8403    4276.7627    4787.4355    4224.9286   -871.57408     609.5289     619.7297    295.24957 
311990000   3.1199e+08    292.75273    93093.952    4111.2205     0.942689   -1153.4436    2118.0848    4199.7474    4740.5337    3393.3805   -343.76129     18.29814    394.81316    292.75392 
312000000     3.12e+08    298.30136    93093.952    4757.4111     0.942689    -1165.308    2168.2267    4806.9432    5095.4864    4369.8039   -526.45964    530.09553   -16.797843    298.30017 
312010000   3.1201e+08    292.10797    93093.952    3380.5994     0.942689   -1212.5617    2051.7615      3178.73    3289.3587    3673.7094    -525.0922   -272.11253     412.2115    292.10968 
312020000   3.1202e+08    290.42056    93093.952    4689.9472     0.942689   -1206.7147    2038.7515    4257.6242    5547.8959    4264.3214    4.4838271    53.194534   -300.47655    290.42615 
312030000   3.1203e+08    290.74688    93093.952    4594.0172     0.942689   -1215.2688    2033.8441    3843.3468    5456.0824    4482.6224   -1472.0069    124.46953   -349.40144    290.74798 
312040000   3.1204e+08    287.48385    93093.952    4810.1828     0.942689   -1096.1076    2116.5408    4164.5358    4950.6946    5315.3179   -583.30369    437.11537    304.45801    287.48278 
312050000   3.1205e+08    281.37297    93093.952    4091.0235     0.942689   -1236.0622    1908.2967    4116.2651    3728.4853    4428.3201   -1129.2723    29.154223    401.19474    281.37451 
312060000   3.1206e+08    292.28712    93093.952    3691.0366     0.942689   -1146.1671    2120.1581     3922.429    3601.1642    3549.5168   -1371.5183   -47.462783    72.376755     292.2878 
312070000   3.1207e+08    290.51974    93093.952    4403.1733     0.942689   -1235.6507     2010.924     4032.368    4792.7889    4384.3629    -549.4618    55.955771   -47.057874     290.5214 
312080000   3.1208e+08    299.60043    93093.952    5468.6163     0.942689    -1266.548    2081.5038    4181.8128    5855.9397    6368.0963   -1660.3565    229.24814     466.5719     299.6004 
312090000   3.1209e+08    293.52216    93093.952    3414.4792     0.942689   -1202.0543    2078.0725    3860.3651    3326.9352    3056.1375    -748.2037    117.44229    395.79137    293.52176 
312100000    3.121e+08    297.68096    93093.952    4252.2438     0.942689   -1151.9287     2174.673    3798.3902    4849.7529    4108.5884    -633.2112     304.6753    673.81175    297.67941 
312110000   3.1211e+08    293.40602    93093.952     3642.421     0.942689   -1213.0851    2065.7439    3107.6689    3528.5544    4291.0397   -584.96747    223.13927   -224.14113    293.40262 
312120000   3.1212e+08    292.33271    93093.952    4042.2368     0.942689   -1113.1873    2153.6474    4569.0203    3176.4631    4381.2271   -879.51237    80.821675    35.802769    292.33569 
312130000   3.1213e+08     299.8361    93093.952    4020.5071     0.942689   -1215.3454    2135.3401    3877.4414    3897.8785    4286.2015   -947.76931    628.04644    376.10915    299.83373 
312140000   3.1214e+08    298.46339    93093.952     3711.222     0.942689   -1223.3021    2112.0433    3946.2496    4007.8846    3179.5318   -1367.3395    526.65415    273.08543    298.46139 
312150000   3.1215e+08    293.40573    93093.952    3862.4264     0.942689   -1118.0648    2160.7609    4605.7739    3527.5135    3453.9917   -682.91889   -158.52198    23.528583    293.40483 
312160000   3.1216e+08    285.71212    93093.952    3743.5688     0.942689   -1188.5921    2004.2571    3276.8565    4136.7384    3817.1114   -24.088502   -305.47762   -280.29973    285.71152 
312170000   3.1217e+08     295.7599    93093.952    4322.9321     0.942689   -1246.9286    2058.2051    3608.4257    4979.9406    4380.4298   -985.57855   -332.19358    220.89207     295.7607 
312180000   3.1218e+08    298.49459    93093.952     4382.933     0.942689   -1272.2327    2063.4614    4146.9296    4437.4901    4564.3793    185.01247   -456.58579   -401.68855    298.49756 
312190000   3.1219e+08    299.37417    93093.952    4033.8645     0.942689   -1196.1371    2149.3864    3117.2107    4290.3118    4694.0709   -275.53282   -112.36151   -271.39846    299.37294 
312200000    3.122e+08    287.81595    93093.952    4187.2674     0.942689   -1250.5218    1965.8378    4076.8148    4628.3353    3856.6521   -857.32149    27.869676   -335.64741     287.8185 
312210000   3.1221e+08    292.52582    93093.952    3225.9308     0.942689   -1240.1934    2028.7993    3690.4674    2942.1039    3045.2211   -600.75672    -250.7089   -217.66105    292.52892 
312220000   3.1222e+08    296.11464    93093.952     4239.405     0.942689   -1200.8437    2108.2543    4086.3576    4165.6551    4466.2023   -235.08178    296.25468    140.20021    296.11378 
312230000   3.1223e+08    292.35327    93093.952    4230.8028     0.942689   -1144.0866    2122.9778    4169.9433    4885.6773    3636.7877   -1070.9147    305.16716    471.01386    292.35244 
312240000   3.1224e+08    302.07717    93093.952    4927.2298     0.942689   -1164.8077    2210.9219    4997.3458    5642.7251    4141.6186   -357.29557    243.28394    41.453208    302.07736 
312250000   3.1225e+08    283.09126    93093.952     4011.035     0.942689   -1157.5079     2006.053    3460.0463     4932.011    3641.0478   -975.64762    214.81957   -165.12268    283.09035 
312260000   3.1226e+08     295.4217    93093.952    4212.7487     0.942689   -1165.7212    2135.6331     3489.996    4597.3611    4550.8892   -719.19038    629.18895    248.53739     295.4216 
312270000   3.1227e+08    288.55342    93093.952    4514.6422     0.942689   -1213.4423    2011.1586    4671.8837    4758.1332    4113.9097    163.07268    142.67443      97.9848    288.55462 
312280000   3.1228e+08     290.3777    93093.952    3752.9394     0.942689   -1248.2573    1996.7299    3739.1336    4519.5136    3000.1709   -991.62396    181.72042   -997.27552    290.37669 
312290000   3.1229e+08    297.43456    93093.952    4788.6604     0.942689     -1153.46    2170.3881    4425.7895    5034.6651    4905.5266   -693.56257    419.35479    265.49015    297.43221 
312300000    3.123e+08     297.9347    93093.952    4559.5201     0.942689    -1152.879    2176.5582    5040.9128    4197.3626    4440.2849   -444.20433   -145.72463   -883.91832    297.93351 
312310000   3.1231e+08    293.67957    93093.952    4549.5103     0.942689   -1181.8016    2100.0843     4730.168    4820.2051     4098.158   -292.81264    76.893154    381.71233    293.68124 
312320000   3.1232e+08    287.21243    93093.952    4414.6277     0.942689   -1160.0213    2049.5939    4454.6875    4059.7223    4729.4734   -1197.7782   -998.32075    1309.5712     287.2148 
312330000   3.1233e+08    298.07713    93093.952    4836.6151     0.942689    -1252.168    2078.8608     4151.277    4697.9594    5660.6088    -327.4285   -604.36467    512.41623    298.07499 
312340000   3.1234e+08    292.13964    93093.952    4096.4757     0.942689    -1184.353    2080.3241    4730.8928    3955.2212     3603.313   -1205.8851   -434.08692   -58.169742    292.13994 
312350000   3.1235e+08    288.51961    93093.952    3673.4652     0.942689   -1276.7402    1947.4829    3477.2163    3904.4893      3638.69   -1321.3372    234.97008    151.38802    288.52116 
312360000   3.1236e+08    292.90927    93093.952    4411.2658     0.942689   -1170.4644    2102.8134    4312.2062    4732.3919    4189.1992    256.24112   -980.70069    96.899508    292.91055 
312370000   3.1237e+08    292.81892    93093.952    3627.9961     0.942689   -1207.2376    2065.0305    2691.0208    4276.4358    3916.5318   -280.73692    676.25203    -314.8625    292.82106 
312380000   3.1238e+08    297.08681    93093.952    3787.7393     0.942689   -1211.6305    2108.3315     2881.208    3879.4652    4602.5446   -510.86402   -252.37853   -69.859117    297.08782 
312390000   3.1239e+08    293.99116    93093.952    4184.3053     0.942689   -1244.4983    2040.8696     3535.473    4388.1193    4629.3238   -290.72234   -16.583026     36.59593    293.99396 
312400000    3.124e+08    290.45941    93093.952    3570.9112     0.942689   -1145.2808    2100.6197    3410.5338      4460.76    2841.4397   -810.33002    573.51357    189.21851    290.45851 
312410000   3.1241e+08    292.58774    93093.952    3596.5267     0.942689    -1142.859    2126.8256     2816.514    3956.0248    4017.0412   -869.16857     745.8217    736.39797    292.59059 
312420000   3.1242e+08    301.04286    93093.952    4606.7314     0.942689   -1337.0585    2027.1126    4586.4514    4748.2509    4485.4921   -831.12793    261.21145    295.64065    301.04237 
312430000   3.1243e+08    296.42725    93093.952    3810.5369     0.942689   -1141.8734     2170.718    3400.2904    3875.5542     4155.766   -591.82215   -22.828277   -604.56463    296.42904 
312440000   3.1244e+08    293.97338    93093.952    3921.5405     0.942689   -1237.7564    2047.4128    3659.0136    4526.6107    3578.9972   -826.28688   -220.77306    732.97908    293.97524 
312450000   3.1245e+08    293.94933    93093.952    4732.1595     0.942689   -1153.3681    2131.5324    4226.3297    4370.3328    5599.8161   -751.48548    -265.7929   -523.91466    293.95026 
312460000   3.1246e+08      290.579    93093.952    3604.7601     0.942689   -1289.3782    1957.8586    3756.4349    3632.7362    3425.1094   -891.11448    40.685602    538.23083    290.57916 
312470000   3.1247e+08    292.44582    93093.952    3809.0317     0.942689   -1186.7047    2081.3939    3890.7873    4389.1512    3147.1566   -409.50449    286.48962   -418.59915    292.44322 
312480000   3.1248e+08    294.77647    93093.952    2846.3014     0.942689   -1225.6787    2068.4651      2999.87    2639.3976    2899.6366   -382.21392   -8.9650055   -32.588968    294.77713 
312490000   3.1249e+08    290.90325    93093.952    3275.3902     0.942689   -1272.8221    1978.0382    3131.1007    3541.2829    3153.7869   -107.47096   -429.25862   -738.66369    290.90611 
312500000    3.125e+08    298.87289    93093.952    4713.4863     0.942689   -1358.0284    1981.8931    4941.2637    4728.8899    4470.3052   -702.34043   -421.07302      119.472    298.87281 
312510000   3.1251e+08    295.02968    93093.952     5122.091     0.942689   -1179.4405     2117.533    6391.6192    4512.1541    4462.4997    63.872283    39.802961   -359.70278    295.02949 
312520000   3.1252e+08    293.71533    93093.952    4681.9888     0.942689   -1173.1855    2109.1001     4712.631    4564.5849    4768.7507   -1462.4771   -229.90957    -377.7746    293.71937 
312530000   3.1253e+08    294.56925    93093.952    4816.3449     0.942689   -1219.7973    2072.0308    4675.9745    5251.1289    4521.9312   -515.75508    166.92371   -364.29354    294.56918 
312540000   3.1254e+08    295.03455    93093.952    3621.7117     0.942689   -1146.4314    2150.5965    3330.7144    3674.5112    3859.9094   -1107.0861    63.841041   -277.65697    295.03375 
312550000   3.1255e+08    294.93196    93093.952    3719.0463     0.942689   -1196.0309    2099.8505    2723.2014    4618.7161    3815.2215   -1145.9366   -454.28001   -168.76113    294.93147 
312560000   3.1256e+08    294.48694    93093.952     4537.638     0.942689   -1228.3529    2062.5553    4735.0232    4205.6711    4672.2198   -842.45443   -550.49749   -822.50868    294.48819 
312570000   3.1257e+08    290.77341    93093.952    4725.1102     0.942689   -1234.2172    2015.1922    3901.9864    4793.4806    5479.8637   -451.78779   -628.21953   -466.73497    290.77406 
312580000   3.1258e+08    285.16863    93093.952    4634.6965     0.942689   -1249.5057      1937.27    3938.6552    5085.3531    4880.0811   -830.95546    372.51495    83.184109    285.16829 
312590000   3.1259e+08    287.63114    93093.952    4515.1962     0.942689   -1280.5177    1933.7766    4928.7203    4287.8413    4329.0269    82.257611   -275.89983    377.30791    287.62929 
312600000    3.126e+08    289.14306    93093.952    3851.0638     0.942689   -1063.0604    2168.1297    3902.4141     4199.764    3451.0134   -242.52583   -395.83038   -295.73338    289.14742 
312610000   3.1261e+08    295.02309    93093.952    3204.5569     0.942689   -1125.0269     2171.873    2409.2866    4449.7534    2754.6306   -361.30819    574.36234    287.97908    295.02472 
312620000   3.1262e+08    293.88055    93093.952    4282.7489     0.942689   -1199.3902    2084.7417    3433.3374    4877.9363     4536.973   -329.45255   -330.12428    103.98738    293.88155 
312630000   3.1263e+08    287.13501    93093.952    4175.6531     0.942689   -1208.5051    2000.2449    2815.2048     4630.114    5081.6406     45.01273    214.78686   -42.585198    287.13481 
312640000   3.1264e+08    292.22598    93093.952    4784.2368     0.942689   -1143.8802    2121.7618     4790.487    4893.5137    4668.7097   -1511.9651   -245.68576   -120.50429    292.22633 
312650000   3.1265e+08    294.14646    93093.952    3332.9039     0.942689   -1286.3661    2000.7374    2180.9356    3647.0154    4170.7607   -572.88474   -57.742688    601.14666    294.14513 
312660000   3.1266e+08    294.56551    93093.952     4378.218     0.942689   -1204.1765    2087.6098     4059.451    4481.8059    4593.3971   -1378.3316     16.66556    219.05961    294.56516 
312670000   3.1267e+08    292.29012    93093.952    3659.7184     0.942689   -1254.1401    2012.2185    2080.8158    3928.1845    4970.1551   -1400.7164   -166.12385   -1208.7454    292.28847 
312680000   3.1268e+08    289.68277    93093.952    3955.5842     0.942689   -1203.1516    2034.0698    2319.0983     4785.731    4761.9232   -1262.8916   -80.908003    210.21303    289.68095 
312690000   3.1269e+08    290.67869    93093.952    4138.4299     0.942689   -1204.5612    2043.7897    3888.6498    3846.9619    4679.6778   -873.21149   -28.394721    156.18739    290.67763 
312700000    3.127e+08    289.94045    93093.952    3916.3633     0.942689   -1212.0811      2028.02    3331.2049    3930.0885    4487.7964   -180.08823    309.46651    1304.9516    289.94148 
312710000   3.1271e+08    287.87768    93093.952    3608.2896     0.942689   -1325.0775    1891.9719    3314.9174    3721.5937    3788.3576   -1161.0285    254.22683    358.10828     287.8778 
312720000   3.1272e+08    294.43002    93093.952    3524.0808     0.942689   -1182.2893     2107.983    3532.0546    3997.7602    3042.4275   -760.98591   -300.28353    -600.0336    294.42983 
312730000   3.1273e+08    289.10828    93093.952     4231.983     0.942689   -1133.4936    2097.3079    4421.3067    3941.7641    4332.8782   -1070.1412   -685.64821    386.54656    289.11055 
312740000   3.1274e+08    291.79815    93093.952    4571.1478     0.942689   -1191.9347    2068.9262    4465.2227    4455.8151    4792.4056   -970.07477    -70.23368   -551.89554     291.8002 
312750000   3.1275e+08    296.17408    93093.952    4201.5057     0.942689   -1177.3775    2132.3847     3216.006    4793.1128    4595.3982    -1195.977   -94.740145    133.81005    296.17444 
312760000   3.1276e+08    290.90517    93093.952    3560.6088     0.942689   -1170.6939    2080.1879    3016.3586    3845.8029     3819.665   -551.91961   -451.90593    329.19033    290.90918 
312770000   3.1277e+08    295.97451    93093.952    4015.3052     0.942689   -1227.4832    2080.0488    3831.6598    4296.5605    3917.6954   -895.03184   -93.392048   -1226.6593    295.97468 
312780000   3.1278e+08    283.28244    93093.952    3952.6794     0.942689   -1235.7499    1929.9475    3442.7576    4816.9979    3598.2828   -195.53489   -557.25277    836.99627     283.2832 
312790000   3.1279e+08    293.47595    93093.952     4095.924     0.942689    -1197.807    2081.8034    3682.8747    4950.4332     3654.464   -791.13334    42.879672    90.898876    293.47497 
312800000    3.128e+08    283.95289    93093.952     4444.752     0.942689   -1184.3926    1988.7972    4286.7145    5364.6969    3682.8446   -1252.3768   -114.35227   -92.187025    283.95637 
312810000   3.1281e+08    292.62397    93093.952    5475.3542     0.942689    -1122.113    2147.9765    5424.4732    4613.3772    6388.2121    238.39735    446.72286   -118.92211    292.62734 
312820000   3.1282e+08    293.40432    93093.952    4770.1671     0.942689   -1272.1314    2006.6786    4068.3918    5160.6469    5081.4625   -1047.6468    136.87596   -45.249681    293.40167 
312830000   3.1283e+08    291.27795    93093.952    3751.9528     0.942689   -1237.6738    2017.3739     3896.291    4648.4435     2711.124     -1532.88   -70.130983   -244.92341    291.27613 
312840000   3.1284e+08    289.50338    93093.952    4548.2722     0.942689   -1219.1511    2016.0655    3349.0522     5260.984    5034.7804   -734.74828   -105.85808   -194.58931    289.50684 
312850000   3.1285e+08    293.33827    93093.952    3344.0698     0.942689   -1233.1765    2044.8953    3265.0979    3630.7854     3136.326   -914.27938    116.32532    1327.8723    293.33668 
312860000   3.1286e+08    293.82698    93093.952    5067.8867     0.942689   -1126.2868    2157.2465    4846.9143    5448.1571    4908.5886   -935.31184   -112.74669   -144.03804    293.82837 
312870000   3.1287e+08    289.96346    93093.952     4448.993     0.942689   -1211.6679    2028.6902    4716.2132     5234.735    3396.0309    -536.6422    898.47061   -681.02229    289.96458 
312880000   3.1288e+08    288.61982    93093.952    4195.2927     0.942689   -1271.3185    1954.0244     3557.667    4987.2396    4040.9714   -336.57128   -508.00225    759.60149      288.617 
312890000   3.1289e+08    291.87793    93093.952    3743.4368     0.942689   -1146.9206    2114.8319    3087.6189    3401.0804    4741.6112   -720.83871    45.415918    311.90049    291.87669 
312900000    3.129e+08    299.66553    93093.952    3845.2544     0.942689   -1240.5693      2108.21    2791.6606     3201.076    5543.0266   -203.54437   -164.27259   -838.15785    299.66571 
312910000   3.1291e+08    290.70487    93093.952    4477.9485     0.942689    -1154.839    2093.8044    4074.9814    5065.4737    4293.3905   -915.01877    192.60889     399.3945    290.70725 
312920000   3.1292e+08    290.39876    93093.952    3912.6616     0.942689   -1286.7287    1958.4939    3300.8959    5009.9002    3427.1888   -1514.9287   -355.88997   -580.49957    290.39846 
312930000   3.1293e+08     290.1099    93093.952    5069.8196     0.942689   -1198.2843    2043.7103    5773.4938    4763.1811    4672.7838     69.26284    660.52722    411.76049    290.10988 
312940000   3.1294e+08    293.16079    93093.952    4395.9099     0.942689   -1240.9235    2035.1651      3701.79    5041.0953    4444.8443   -13.937609   -647.11556   -586.45542    293.16125 
312950000   3.1295e+08    288.16238    93093.952    4467.2512     0.942689   -1220.2026    2000.0284    4457.4243    4658.0606    4286.2686   -741.61765    162.66321    59.263304    288.16388 
312960000   3.1296e+08    287.25929    93093.952    4119.2087     0.942689   -1184.8251    2025.3138    3766.6244     4836.321    3754.6807   -303.82596    338.46332   -717.06561    287.25745 
312970000   3.1297e+08    295.72016    93093.952    4534.1113     0.942689   -1163.2667    2141.4229    4263.5941    4564.4292    4774.3105    33.267006    76.926807    472.59816    295.71799 
312980000   3.1298e+08    292.18969    93093.952    3988.0853     0.942689   -1174.7577    2090.4786    3913.8225    4096.6354    3953.7979   -492.19678    -41.28907     332.5754    292.19056 
312990000   3.1299e+08    294.57336    93093.952    3708.3777     0.942689   -1218.6005    2073.2735    3905.0332      3490.81    3729.2897   -126.33883   -350.22867   -537.73121     294.5752 
313000000     3.13e+08     295.7292    93093.952    3996.4232     0.942689   -1244.7406      2060.05    3669.3315    4454.4486    3865.4894   -801.36067    516.05533   -291.03129    295.72734 
313010000   3.1301e+08    296.39889    93093.952    4956.7047     0.942689   -1279.9853    2032.2892    5220.6733    4480.3549     5169.086   -475.07104   -292.08395    67.893878    296.39739 
313020000   3.1302e+08    295.47132    93093.952    5003.6407     0.942689   -1206.5947    2095.3141    5280.8489    4644.7703    5085.3028   -793.97529    378.13336    839.93833    295.47163 
313030000   3.1303e+08    293.38689    93093.952    4448.7183     0.942689    -1230.418    2048.1971    4266.6542    4039.9452    5039.5555   -1289.5531    568.37742   -730.47052    293.39053 
313040000   3.1304e+08    292.52651    93093.952    4729.0165     0.942689   -1272.1543    1996.8461    4471.8471    3705.2459    6009.9565   -527.65885    480.53785   -96.371681    292.52473 
313050000   3.1305e+08      293.213    93093.952    4674.1172     0.942689   -1183.9634    2092.7085    4677.8088    5651.3565    3693.1865   -1133.7664    539.60365    1468.0067    293.21021 
313060000   3.1306e+08      296.829    93093.952    4859.5605     0.942689   -1222.9568    2094.1241    4170.9789    5436.0545    4971.6483   -1126.5484    15.474989   -152.61098    296.82718 
313070000   3.1307e+08    289.09604    93093.952    3492.4788     0.942689   -1202.8482    2027.8165    3212.4202    3347.5297    3917.4864    -925.2702    470.48731    369.44686    289.09665 
313080000   3.1308e+08    294.48792    93093.952         4809     0.942689   -1230.4122    2060.5071    4845.1069    5076.1839    4505.7091   -846.81961   -117.96872    35.761463     294.4888 
313090000   3.1309e+08    291.85983    93093.952    3100.0503     0.942689   -1196.9301      2064.62    3821.8898     3545.318    1932.9432   -312.41475    32.049815   -660.56516    291.86205 
313100000    3.131e+08    294.45334    93093.952    4247.4965     0.942689   -1220.0057    2070.5271     3221.029    5275.7921    4245.6684   -1342.6875     539.8016    978.91037    294.44965 
313110000   3.1311e+08    293.33709    93093.952    4364.4503     0.942689   -1263.9969    2014.0618     3415.821    4357.1688     5320.361   -867.69905   -268.73448   -15.619722    293.34031 
313120000   3.1312e+08    293.72342    93093.952    5133.4446     0.942689   -1167.4259      2114.95    4448.5659    5195.7098    5756.0582   -316.04751     58.49548    636.22171    293.72252 
313130000   3.1313e+08    293.99343    93093.952    3999.0079     0.942689   -1149.7543     2135.639    3445.1274     4074.238    4477.6585   -1052.9721   -502.80384    230.22722    293.99364 
313140000   3.1314e+08     295.8116    93093.952     4176.737     0.942689   -1144.9371    2160.7743    3783.0405    5474.0734    3273.0971   -297.30183    252.70629    137.57901    295.81226 
313150000   3.1315e+08    288.58088    93093.952    4326.1603     0.942689   -1207.9057    2017.0021    3501.6053    5030.8754    4446.0002   -547.73092   -171.80646   -341.06895    288.57826 
313160000   3.1316e+08    295.61808    93093.952    4313.0538     0.942689   -1174.1184    2129.4304     3775.925    4772.9821    4390.2543   -798.49229   -525.32792    11.328023     295.6162 
313170000   3.1317e+08    292.19196    93093.952    3787.5195     0.942689   -1206.4113    2058.8505    2827.5311    4306.9457    4228.0817   -1249.0416   -814.61447   -593.04082    292.19011 
313180000   3.1318e+08    297.52997    93093.952    4162.9169     0.942689   -1178.9842    2145.9301    2815.2506    4891.1748    4782.3252   -1019.7976    41.372154   -654.88677    297.52682 
313190000   3.1319e+08    295.57745    93093.952    3972.9758     0.942689   -1196.8032    2106.2917    3010.5667    4753.9218    4154.4388   -753.05037   -263.74793    -153.5701     295.5809 
313200000    3.132e+08    295.02864    93093.952    4622.7614     0.942689   -1268.0798     2028.882    4214.5672    4867.6951     4786.022    310.14579   -81.328635    782.37224    295.02818 
313210000   3.1321e+08    295.64964    93093.952    4040.3033     0.942689   -1174.7254    2129.1762    2961.7692    4475.3235    4683.8173   -1188.1957   -322.58732   -635.49492    295.64977 
313220000   3.1322e+08    291.19581    93093.952    4362.9942     0.942689   -1098.0254    2156.1043    3660.6029    5173.4816    4254.8982   -139.47368     20.04351   -547.19579    291.19614 
313230000   3.1323e+08     291.3145    93093.952    3892.7973     0.942689   -1256.2566    1999.1995    3017.1723    5112.2011    3549.0186    430.17013    623.08739      594.808    291.31784 
313240000   3.1324e+08    295.69145    93093.952    3682.9678     0.942689   -1170.4893    2133.8794    3135.2491     3817.671    4095.9834   -830.71879    197.17229    461.61878    295.69286 
313250000   3.1325e+08    292.88892    93093.952    4367.1791     0.942689   -1155.5527    2117.4976    4331.9322    4545.8092    4223.7958   -1353.8134    67.892033    138.14289    292.88686 
313260000   3.1326e+08    295.39634    93093.952    4298.9106     0.942689    -1252.626    2048.4449    3901.9363    4680.4357    4314.3599   -687.10546    138.82501    90.181988    295.39353 
313270000   3.1327e+08    286.61676    93093.952    4135.0639     0.942689   -1206.4796     1996.479    3340.7662    4615.1593    4449.2663   -774.73098   -145.30968      998.197    286.61733 
313280000   3.1328e+08    290.72296    93093.952    4299.1176     0.942689   -1226.9968    2021.8488    3642.8307    3665.7822    5588.7399   -156.23287    65.203524    588.56671    290.72615 
313290000   3.1329e+08    292.84689    93093.952    4652.4881     0.942689   -1224.1575    2048.4231    3802.3345    5516.7249    4638.4049   -48.039006   -692.30043    8.1270474    292.84879 
313300000    3.133e+08    295.07284    93093.952    4200.6241     0.942689   -1267.8833    2029.5724    4120.8714    4366.4778    4114.5233    -633.7162    -460.3348    -499.3358    295.07251 
313310000   3.1331e+08    287.99071    93093.952    4430.8433     0.942689   -1112.5383    2105.7743     3689.225    5294.4137    4308.8913   -1005.1458   -12.997104    41.839599    287.98971 
313320000   3.1332e+08    294.75894    93093.952    4207.4173     0.942689   -1217.7149     2076.233    3067.0697    4500.8392     5054.343    21.132491   -51.067804   -6.4134792    294.76052 
313330000   3.1333e+08    296.21014    93093.952    4076.8067     0.942689   -1151.4019    2158.7633    2600.7275    4616.2265     5013.466   -669.31869    307.25719    -585.0956    296.21119 
313340000   3.1334e+08    295.30406    93093.952    4911.9394     0.942689   -1226.3147    2073.7249    4908.4059    4533.4278    5293.9845    -257.8088   -333.89045    -351.4639    295.30208 
313350000   3.1335e+08    289.63127    93093.952    4268.9598     0.942689   -1158.8489     2077.797    3922.2265    4405.7701    4478.8828   -1686.4107    119.65444     113.1449    289.62998 
313360000   3.1336e+08    291.62868    93093.952    4577.5778     0.942689   -1245.4929    2013.4742    3938.6866    4821.4902    4972.5568   -470.47348   -173.44647    265.07263    291.62839 
313370000   3.1337e+08     289.4887    93093.952    3669.4807     0.942689   -1188.4861    2046.5665    2569.8657    4757.3907    3681.1858    -1780.467    578.24622    488.27656    289.49068 
313380000   3.1338e+08    296.66475    93093.952    4247.2402     0.942689   -1171.3403    2143.9051      4135.53    4784.4073    3821.7832   -515.31276    249.37553    763.41483    296.66626 
313390000   3.1339e+08    291.87115    93093.952    4451.5911     0.942689   -1187.5809    2074.0958    4656.6511    4459.3558    4238.7663    247.07505   -256.08398    121.47253    291.87193 
313400000    3.134e+08    291.25983    93093.952    4853.9957     0.942689   -1145.3036    2109.5416    4697.4834    4712.3292    5152.1744   -9.1901206    540.88985   -230.77148     291.2625 
313410000   3.1341e+08    300.82549    93093.952    4244.4881     0.942689   -1169.2218    2192.5201    3835.9356    4173.0211    4724.5075   -1434.1364    -440.6927    367.50482    300.82407 
313420000   3.1342e+08    294.11715    93093.952     4367.861     0.942689   -1106.2099    2180.5659    2869.0296    4749.2259    5485.3276   -568.56755   -905.81203    559.31981    294.11613 
313430000   3.1343e+08    289.08216    93093.952    4483.6534     0.942689   -1134.9099    2095.5997    3624.9827    5059.6901    4766.2874   -517.54914    266.82171     386.9223    289.08308 
313440000   3.1344e+08    292.42424    93093.952    5129.6466     0.942689   -1152.2148    2115.6428    5903.8009    4502.0518    4983.0869   -172.75587    325.25497   -223.81445    292.42504 
313450000   3.1345e+08    288.17903    93093.952    4055.7009     0.942689   -1162.3119    2058.1052    3426.7049    5782.5757    2957.8222    -306.7488    337.53739   -196.88454    288.18138 
313460000   3.1346e+08     290.7988    93093.952    4494.5209     0.942689   -1146.9024    2102.7907    3631.2692     4211.088    5641.2055   -189.19718   -348.17287    -712.1462    290.79681 
313470000   3.1347e+08    295.73424    93093.952    3875.7323     0.942689   -1204.9008    2099.9461    2885.5023    4275.8465     4465.848   -541.30674    242.19984    372.88354    295.73499 
313480000   3.1348e+08      289.749    93093.952    4511.8971     0.942689   -1237.3952    2000.5664    3698.7539    5320.6356    4516.3019   -1411.2334   -460.05348   -751.38823    289.74935 
313490000   3.1349e+08    301.50759    93093.952    4261.2211     0.942689   -1228.0968    2141.2677    4849.5011    4368.8649    3565.2972   -405.58397    409.44684    -23.24021    301.51096 
313500000    3.135e+08     287.8041    93093.952     3398.136     0.942689   -1226.7914    1989.4359    3900.4783    3603.1282    2690.8015   -664.85571   -283.43677   -184.98228     287.8042 
313510000   3.1351e+08     302.3325    93093.952    4747.1486     0.942689   -1177.4172    2201.1657    4573.1277    4714.1058    4954.2123   -786.02969    1407.6569    200.71518    302.33336 
313520000   3.1352e+08    295.68004    93093.952    3941.6897     0.942689   -1157.9661    2146.2752    4009.6153    4863.5425    2951.9112   -516.13821   -48.039022   -569.78109    295.67772 
313530000   3.1353e+08    286.84614    93093.952    3804.3064     0.942689   -1155.8547    2049.6671    1954.3658    4789.7543    4668.7992   -1696.5355   -27.461212    839.55681    286.85007 
313540000   3.1354e+08    291.56481    93093.952    4129.8527     0.942689   -1165.1163     2093.137    3693.9149    4261.0584    4434.5849   -772.72313   -80.933869   -297.71933    291.56513 
313550000   3.1355e+08    290.76472    93093.952    4381.1565     0.942689   -1184.6358    2064.6765    3405.5015    4661.0857    5076.8823   -1103.2562   -418.91972   -1071.8928    290.76672 
313560000   3.1356e+08    288.20449    93093.952     4334.053     0.942689   -1158.7454    2061.9562    4195.2891    3585.2289    5221.6409   -776.61698    866.70887   -172.09618    288.20685 
313570000   3.1357e+08    296.60833    93093.952    4478.4593     0.942689   -1143.6034    2171.0116    3379.5534    5357.9553    4697.8691   -12.755579    324.46887   -190.78455    296.60984 
313580000   3.1358e+08    287.46965    93093.952    3388.2118     0.942689   -1128.9125    2083.5772    2591.5159    3486.1835    4086.9359   -1419.7395    -574.2718   -141.57123    287.46721 
313590000   3.1359e+08    298.72357    93093.952    4230.1166     0.942689   -1112.3662    2225.8867    4175.9511    3809.3434    4705.0553    -794.7824   -642.66667   -1196.6342    298.72961 
313600000    3.136e+08    295.61307    93093.952    3674.6314     0.942689    -1161.805    2141.6878    3277.8526    3838.8368    3907.2048   -519.26592   -246.97524   -226.14176    295.61423 
313610000   3.1361e+08    303.67034    93093.952    4684.6298     0.942689   -1181.1402    2212.3931    4759.4685    5119.1245    4175.2964   -504.72766    90.001912    428.16011    303.67038 
313620000   3.1362e+08    291.05754    93093.952    4131.2575     0.942689    -1234.157    2018.4276    3108.9491    5402.5028    3882.3205   -330.10408    114.03431    38.552634    291.05777 
313630000   3.1363e+08     295.4474    93093.952    4415.7897     0.942689   -1197.5082    2104.1333    4383.2734    4758.8743    4105.2213   -846.55971   -838.52354   -203.48007    295.44756 
313640000   3.1364e+08    298.70947    93093.952    3880.5247     0.942689   -1165.1829    2172.9124    4270.0144    3516.9178    3854.6419   -678.37113    117.70252   -978.82874    298.70881 
313650000   3.1365e+08    293.10525    93093.952    4301.8357     0.942689   -1175.6769     2099.791    3967.9583    4820.7743    4116.7745   -1529.6891    197.26978   -273.88529    293.10502 
313660000   3.1366e+08    301.39294    93093.952    4632.0121     0.942689   -1182.3481    2185.7351    2963.9423    5740.0734    5192.0204   -1219.8432    142.37168   -198.33891    301.39475 
313670000   3.1367e+08    296.74617    93093.952    3527.1421     0.942689    -1160.594    2155.5613    3094.2569    3701.5143    3785.6551    -1142.706   -162.31217    265.87625    296.74789 
313680000   3.1368e+08     292.7926    93093.952    4750.3761     0.942689   -1173.7338    2098.2402    4400.6309    4654.0194    5196.4779    -742.7347   -67.359685    125.25821    292.79242 
313690000   3.1369e+08     298.1539    93093.952     4518.908     0.942689   -1145.4816    2186.4052    4513.5439    4616.1945    4426.9856   -397.78812   -160.22174    3.0099382    298.15273 
313700000    3.137e+08    298.31313    93093.952    4424.5373     0.942689   -1124.0963    2209.5699    5369.8022    4414.1247    3489.6851   -171.59897   -272.30185   -577.49757    298.31132 
313710000   3.1371e+08    297.44985    93093.952    4895.0131     0.942689   -1159.8355    2164.1835    3957.8692    5549.1645    5178.0058   -1385.8764   -172.66691   -399.76681    297.44874 
313720000   3.1372e+08    293.04857    93093.952    4805.8866     0.942689   -1094.2341    2180.6004    4509.9661    5191.1424    4716.5513    -901.6142   -289.73326    68.783805    293.04846 
313730000   3.1373e+08     289.1911    93093.952    3351.8337     0.942689   -1139.9357    2091.7913    2478.6965    4194.8862    3381.9185   -204.99044   -214.78541    109.11042    289.19252 
313740000   3.1374e+08    291.68092    93093.952    4384.4039     0.942689   -1189.2699    2070.2809    4975.8045    4267.6149    3909.7925   -1641.5082   -248.30639   -285.84262    291.68241 
313750000   3.1375e+08    294.67189    93093.952    4788.7372     0.942689   -1149.4846    2143.4906    5051.3807    4628.9075    4685.9235   -798.30045    1072.2021    126.17942    294.66905 
313760000   3.1376e+08    289.71447    93093.952    3377.0007     0.942689   -1161.2139    2076.3618    1963.8599    4448.2887    3718.8536   -837.19951    540.29553   -123.66448    289.71208 
313770000   3.1377e+08    302.25809    93093.952    3986.5139     0.942689   -1193.2798    2184.4715    3012.7296    4651.9925    4294.8195   -384.24969    700.82197   -195.83157    302.25967 
313780000   3.1378e+08    291.60935    93093.952    4473.7481     0.942689   -1075.7481    2183.0031     4697.094    4020.7154    4703.4348   -168.20796    529.85218    -485.0616    291.61057 
313790000   3.1379e+08    296.80962    93093.952    4635.5796     0.942689    -1164.696    2152.1684    4897.0151    5264.2759    3745.4479   -1114.2602   -696.72397   -476.24099    296.80623 
313800000    3.138e+08    292.77553    93093.952    3540.2403     0.942689   -1062.5307    2209.2524     4004.793    3373.5062    3242.4218   -811.04927  -0.39805736      94.4937    292.77644 
313810000   3.1381e+08    292.93871    93093.952    4857.2964     0.942689   -1172.1384    2101.4683    4395.9048    4707.7913    5468.1932   -575.90555    588.36279    645.31688     292.9381 
313820000   3.1382e+08    293.44824    93093.952    4540.1316     0.942689    -1122.898    2156.4028    4393.2291    4640.2203    4586.9455   -364.43746   -292.34174   -1075.4834     293.4444 
313830000   3.1383e+08    291.44477    93093.952    4531.5107     0.942689   -1142.8572    2114.0548    3979.8027    4089.8101    5524.9193   -649.20411   -116.84246   -962.24483    291.44742 
313840000   3.1384e+08    298.84391    93093.952    4724.3017     0.942689   -1099.5923    2240.0054    4682.2609     4663.683    4826.9611   -576.29726    487.41887      324.079    298.84363 
313850000   3.1385e+08    291.71961    93093.952    4712.5015     0.942689   -1147.3585    2112.6248    5401.8696    4219.0162    4516.6188    33.361393   -30.118168    288.21694    291.72042 
313860000   3.1386e+08    292.26575    93093.952    3737.2155     0.942689   -1135.3309    2130.7555    3972.1265    3652.2562    3587.2638    44.139704    -796.9267    872.69527    292.26318 
313870000   3.1387e+08    298.72681    93093.952    4858.8635     0.942689   -1161.9814    2176.3076      4659.56    4770.2726     5146.758   -1450.4397    60.270866    249.90022    298.72743 
313880000   3.1388e+08    288.92598    93093.952    4698.3788     0.942689   -1250.3605    1978.4038     4180.941    5308.0086    4606.1868   -446.90277    645.39931   -766.30253    288.92489 
313890000   3.1389e+08      289.354    93093.952    3687.7709     0.942689   -1134.8599    2098.6874    2705.7854    4344.3761    4013.1511   -1033.5981    244.28426   -732.78959    289.35213 
313900000    3.139e+08    292.99316    93093.952    3992.5502     0.942689   -1163.0028    2111.2124    3300.7919    5435.9595    3240.8991    359.01414    560.89575   -770.52788    292.99338 
313910000   3.1391e+08      292.873    93093.952    3299.6329     0.942689   -1189.4451    2083.4273    3406.9434    3917.1466    2574.8088   -249.11917    239.74889    611.76563    292.87063 
313920000   3.1392e+08    294.85015    93093.952    2834.6347     0.942689   -1196.3735    2098.5936    2489.1315    2838.3648    3176.4076   -426.14654     283.5945     88.26033    294.84921 
313930000   3.1393e+08     291.8394    93093.952    4046.5383     0.942689   -1222.8525    2038.4694    3901.0568    3979.1732    4259.3849   -760.07073   -85.454433   -794.38886    291.84108 
313940000   3.1394e+08    298.00786    93093.952    3666.5242     0.942689   -1112.6094    2217.6454    3548.8453     3857.738    3592.9891    110.82866   -128.36202    137.64344    298.00705 
313950000   3.1395e+08    295.13546    93093.952     4681.249     0.942689   -1155.8458    2142.3098    4837.0255    5053.2676    4153.4539   -666.71501      646.475   -479.72972    295.13483 
313960000   3.1396e+08    290.85407    93093.952    3839.7812     0.942689   -1142.4156    2107.8952    2501.3617    4834.1458     4183.836    34.789913   -327.35181   -11.772512     290.8546 
313970000   3.1397e+08    294.99783    93093.952    4376.5243     0.942689   -1136.4119    2160.2057     4295.947    4609.1328     4224.493   -1396.1521    261.41513    631.66384    295.00027 
313980000   3.1398e+08    288.99986    93093.952    4162.8703     0.942689    -1105.584    2124.0059    3450.2947    4218.5243     4819.792   -247.02263   -360.01405    3.5106782    288.99688 
313990000   3.1399e+08    295.80377    93093.952    3555.0326     0.942689   -1135.9772    2169.6468    1762.1417    4613.4893    4289.4669    -606.0037    196.16978   -296.58068    295.80671 
314000000     3.14e+08    293.22354    93093.952    3629.3995     0.942689   -1195.2649    2081.5248    5154.4587    3085.7559    2647.9838   -1382.8717   -307.70944   -190.72367    293.22255 
314010000   3.1401e+08    292.62379    93093.952    4468.6629     0.942689   -1079.7273    2190.3602    4269.1281    4316.3176     4820.543   -282.33374    110.04555    237.35041    292.62038 
314020000   3.1402e+08    289.48725    93093.952    4047.6844     0.942689   -1138.9531    2096.0834    3965.7494     4267.281    3910.0228   -801.99979   -118.33154    251.50307    289.48701 
314030000   3.1403e+08    292.40297    93093.952    4105.5622     0.942689    -1123.714    2143.9058    4252.7215    3838.9335    4225.0317   -1285.8198   -262.90385   -79.260725    292.40538 
314040000   3.1404e+08    299.88158    93093.952    4065.7035     0.942689   -1189.9651    2161.2286    4362.2276    4018.2613    3816.6216   -864.08466    22.985825   -940.78545    299.88351 
314050000   3.1405e+08    289.41046    93093.952    4368.7121     0.942689   -1226.4333    2007.7451    5091.5121    3406.4837    4608.1404    224.31857    374.62158   -149.93053      289.413 
314060000   3.1406e+08    294.82677    93093.952    3704.9676     0.942689   -1154.7481    2139.9578     3048.217    4201.0259      3865.66   -370.65007   -498.65847    11.808803    294.82584 
314070000   3.1407e+08    290.66743    93093.952    4219.9126     0.942689   -1157.7858    2090.4392    4389.7893    4317.6821    3952.2665      262.864    637.97501     1263.853    290.66568 
314080000   3.1408e+08     295.1548    93093.952    3579.2283     0.942689   -1094.3094    2204.0623    3560.2819    3866.0385    3311.3646   -419.73499    569.88033   -886.41881    295.15522 
314090000   3.1409e+08    292.27319    93093.952    5447.5569     0.942689   -1184.6061    2081.5634    4981.5959    6084.3386    5276.7363   -441.18007    119.64964   -341.54098    292.27438 
[...]
509080000   5.0908e+08     298.4215    93093.952    4299.4687     0.942689    -1274.709    2060.1682    3079.7934     5537.744    4280.8687   -1182.2081    356.64992   -362.32757    298.41982 
509090000   5.0909e+08      290.286    93093.952    4571.6511     0.942689   -1205.9068    2038.0558    3712.8803    4962.0281    5040.0449    -1113.605   -161.11307    504.91439    290.28793 
509100000    5.091e+08    291.09496    93093.952    4338.0147     0.942689   -1215.8954    2037.1074    3656.6158     5161.883    4195.5453   -61.729161   -113.47593   -51.524583    291.09606 
509110000   5.0911e+08     290.5472    93093.952    4704.7197     0.942689   -1190.7318    2056.1496    4513.6433    4114.9198     5485.596   -709.20243   -284.25486    265.17674    290.54907 
509120000   5.0912e+08    292.76375    93093.952    4535.6788     0.942689   -1169.3059    2102.3457    3883.3575    4834.5849    4889.0938   -489.94042    377.25429    -391.8514    292.76525 
509130000   5.0913e+08    293.96349    93093.952    4797.6293     0.942689   -1162.6256    2122.4331    4458.8234    5339.1072    4594.9573    254.16593   -222.77321    566.94206    293.96312 
509140000   5.0914e+08    295.44602    93093.952    4692.2698     0.942689   -1285.3681     2016.258    4168.2698    4707.7082    5200.8313   -74.765677   -176.45142   -202.77313     295.4426 
509150000   5.0915e+08    292.20689    93093.952    4606.2773     0.942689   -1293.1912    1972.2374    3748.8434    5945.3327    4124.6557   -444.71022   -936.73001   -284.28448    292.20499 
509160000   5.0916e+08    294.85863    93093.952    4140.6731     0.942689    -1180.398     2114.664    4308.9172    4543.6778    3569.4243   -1096.5505   -376.40748    123.35949    294.85442 
509170000   5.0917e+08    289.55433    93093.952    3913.6828     0.942689   -1146.8612    2088.9248    2880.3933    4972.6592    3887.9958   -560.87451   -800.37532    17.772282    289.55643 
509180000   5.0918e+08    303.13738    93093.952    4223.6622     0.942689   -1185.7491    2201.8284    3383.0044    5265.7471     4022.235   -394.19934    83.973568     385.1131    303.13621 
509190000   5.0919e+08    292.97132    93093.952    4403.1457     0.942689   -1240.8452     2033.126    3964.3939    5110.8815    4134.1615   -454.48753   -471.50092     9.368773    292.97299 
509200000    5.092e+08    289.96218    93093.952    3621.2712     0.942689   -1186.7733    2053.5705    3480.7481     3776.992    3606.0736   -1114.8911   -731.63631      585.761    289.95935 
509210000   5.0921e+08    293.59804    93093.952    4841.8875     0.942689   -1301.6934    1979.2815    4221.3773    4401.3246    5902.9606   -1265.8741   -571.73321    428.29936    293.59954 
509220000   5.0922e+08    291.69015    93093.952    4832.0505     0.942689   -1153.0225    2106.6314    4755.2213    5252.8623    4488.0678   -890.48075   -515.55199    868.95863    291.69132 
509230000   5.0923e+08    294.39059    93093.952    5144.3876     0.942689   -1138.7303    2151.1012    4514.2688    4949.6448    5969.2493   -975.74555    112.97343    893.86914     294.3915 
509240000   5.0924e+08     297.7557    93093.952    4501.4102     0.942689   -1110.5326    2216.9043    3698.0269    4703.2544    5102.9494   -541.23363   -159.58951   -226.68466    297.75983 
509250000   5.0925e+08    293.05912    93093.952    3330.0032     0.942689   -1208.2474     2066.705     3158.751    4027.1078    2804.1506    18.056304   -78.789479    30.871088     293.0603 
509260000   5.0926e+08    292.04529    93093.952     4362.958     0.942689   -1152.0772    2111.5455    3462.2538    4476.5959    5150.0244    120.52597   -653.45198    564.28497     292.0459 
509270000   5.0927e+08    281.25438    93093.952    4343.2264     0.942689   -1207.0983    1935.9355     3894.446    4729.3166    4405.9167   -1671.4007   -1058.9384   -201.45158    281.25309 
509280000   5.0928e+08    292.10795    93093.952    4187.7087     0.942689   -1180.4797    2083.8432    5455.6703    3656.0831    3451.3725   -30.188543   -531.47157   -1066.0495    292.10521 
509290000   5.0929e+08    285.65967    93093.952    4257.8125     0.942689   -1155.4879    2036.7752    3250.7853    4711.8075    4810.8448   -773.58997   -182.03019    -84.58176    285.65967 
509300000    5.093e+08    291.25062    93093.952    4207.9987     0.942689   -1206.4875    2048.2548    3708.4485    4204.3733    4711.1743   -1722.2073   -507.13253   -1005.3472    291.25266 
509310000   5.0931e+08    293.58438    93093.952    4183.5674     0.942689   -1227.9469    2052.8753    4064.9864    5062.0163    3423.6995    -500.2312   -464.64417   -44.899022    293.58752 
509320000   5.0932e+08    293.05114    93093.952      4362.16     0.942689    -1264.017    2010.8461    4576.6963    3709.1585    4800.6252   -638.51233    581.02664    70.661543    293.05216 
509330000   5.0933e+08    290.11311    93093.952     4472.118     0.942689   -1193.5362    2048.4943    3654.4806    5296.1448    4465.7286   -517.15889    396.10119    401.46355    290.11237 
509340000   5.0934e+08    291.69364    93093.952    4422.7539     0.942689   -1153.3213    2106.3718    3185.9277    5312.4342    4769.8999   -508.98178    801.96199   -171.01043    291.69598 
509350000   5.0935e+08    295.65558    93093.952    3827.0169     0.942689    -1232.803     2071.165    2967.1556     4674.817    3839.0781     85.97876    306.91756   -145.25152    295.65676 
509360000   5.0936e+08    291.10383    93093.952    4362.6044     0.942689   -1300.2224    1952.8794    3962.9219    5273.2785    3851.6127    78.198338   -140.25655    103.66528    291.10868 
509370000   5.0937e+08    294.33517    93093.952    4166.4287     0.942689    -1221.385    2067.8273    2897.4818    4824.8987    4776.9056   -660.32068    296.55159   -307.67023    294.33316 
509380000   5.0938e+08    293.91155    93093.952    3368.0261     0.942689   -1193.9692    2090.5091    2400.4528     3581.164    4122.4615   -1112.8121    1157.1596    619.32332    293.91325 
509390000   5.0939e+08    297.55901    93093.952    4537.7532     0.942689   -1092.9278     2232.311     3539.085    4721.1353    5353.0393    206.61864   -43.878199    455.88937    297.55761 
509400000    5.094e+08    291.14338    93093.952     4738.821     0.942689   -1268.5146    1985.0292    5326.6096    4380.0782    4509.7752   -864.41045    362.99815   -516.35196    291.14453 
509410000   5.0941e+08    294.16714    93093.952    3640.4922     0.942689   -1216.3537    2070.9809    3257.4275    3935.7407    3728.3084   -494.15759   -172.65638   -31.033278    294.17181 
509420000   5.0942e+08    294.48058    93093.952    3482.5319     0.942689   -1158.8524    2131.9849      2401.68    4048.1407    3997.7751   -736.21739    244.46031    328.66326    294.48301 
509430000   5.0943e+08    289.10336    93093.952    4756.7565     0.942689   -1180.5879    2050.1586    3902.2404    5136.8139    5231.2151   -660.64252    309.49026   -76.435984    289.10425 
509440000   5.0944e+08    288.06525    93093.952    3196.9305     0.942689   -1269.0437    1950.1018    1985.5339    3983.3943    3621.8633   -960.94062   -598.10725   -216.55326     288.0668 
509450000   5.0945e+08    299.20724    93093.952    4894.8951     0.942689   -1106.5913    2237.0666    4186.6243    5451.9915    5046.0695   -295.19418   -572.20222    -305.8706    299.20984 
509460000   5.0946e+08    293.84197    93093.952    3863.7773     0.942689     -1210.05    2073.6507    2966.3443    4469.1796    4155.8081   -433.88121    550.88009    367.44674    293.84065 
509470000   5.0947e+08    293.08662    93093.952    3635.3925     0.942689   -1130.6028    2144.6568    3049.5187    4490.6941    3365.9648   -1308.2624   -63.188922   -313.82221    293.08399 
509480000   5.0948e+08    289.45914    93093.952      4993.47     0.942689   -1238.0046    1996.7178    5441.1186    4525.3517    5013.9398   -1236.9683   -20.941612   -295.30342    289.45927 
509490000   5.0949e+08    297.36523    93093.952    4626.7274     0.942689   -1207.0515    2116.0219    4560.8256    5089.9275    4229.4292   -876.35659    327.09112   -182.81098     297.3646 
509500000    5.095e+08    296.36596    93093.952    4056.9555     0.942689   -1146.0643    2165.8421    3696.3764    4879.9188    3594.5714   -1121.7064    267.53295    409.82621    296.36711 
509510000   5.0951e+08    295.95613    93093.952    4613.3198     0.942689    -1190.966    2116.3606     3442.603    5600.6912     4796.665   -1255.9093   -398.75646    -441.7763    295.95116 
509520000   5.0952e+08    288.36405    93093.952    4246.0362     0.942689   -1167.1511    2055.3335    4053.2664    4652.2653    4032.5768     38.14169   -19.717707   -633.57445    288.36291 
509530000   5.0953e+08    290.97446    93093.952    3837.2297     0.942689   -1254.1602    1997.4959    2758.9063     4041.981    4710.8019   -796.46528   -107.90632   -201.77513    290.97508 
509540000   5.0954e+08    291.69993    93093.952     3412.163     0.942689   -1250.3953     2009.368    3067.3681    3350.6719    3818.4491   -570.84464    99.141464   -566.03304    291.69742 
509550000   5.0955e+08    293.07999    93093.952    5013.1143     0.942689   -1230.9732    2044.2124    6130.6538    4929.1076    3979.5815   -967.77144   -615.58096   -125.68829     293.0799 
509560000   5.0956e+08    288.17681    93093.952     3724.209     0.942689   -1200.7468    2019.6454    1965.2225    4668.8495    4538.5551   -794.68633   -25.704617    169.89677    288.17537 
509570000   5.0957e+08    292.21494    93093.952    4681.6832     0.942689   -1155.5743    2109.9443    4431.9123     4967.186    4645.9515    268.14374    638.69899   -331.22705    292.21471 
509580000   5.0958e+08    293.54901    93093.952    4011.5331     0.942689   -1217.7993    2062.6276    3715.6304    4060.0436    4258.9253   -653.43923    11.851131    192.16137    293.55328 
509590000   5.0959e+08    290.43013    93093.952    3991.3409     0.942689   -1209.9446    2035.6286    4288.3808    3236.1874    4449.4544   -427.13182    414.90578   -450.44323    290.43104 
509600000    5.096e+08    296.13673    93093.952    3983.1532     0.942689   -1197.1272    2112.2176    2730.8768    5109.2003    4109.3826   -91.098173   -115.72721    550.88627    296.13484 
509610000   5.0961e+08    295.64275    93093.952    3851.2042     0.942689   -1221.9498    2081.8747    2870.3628    3732.2674    4950.9825   -646.66936   -409.29367   -582.51574    295.64107 
509620000   5.0962e+08    298.51238    93093.952    5224.6118     0.942689    -1152.302    2183.5909    5346.0157    5235.3413    5092.4784     -1648.85   -147.89835   -64.241472     298.5135 
509630000   5.0963e+08    286.82132    93093.952    4980.0648     0.942689    -1199.426    2005.8186    4503.7788    5963.0476     4473.368   -1104.1628   -461.45994   -557.42787    286.82105 
509640000   5.0964e+08    297.68065    93093.952    3994.7827     0.942689   -1201.8162     2124.782    3409.0045    4310.2943    4265.0492   -812.71231    456.00051    318.66414     297.6843 
509650000   5.0965e+08    290.95177    93093.952    3915.7124     0.942689   -1194.6384    2056.7641    3777.6713    3933.1141    4036.3519   -1504.2931   -988.49906    764.44628    290.94906 
509660000   5.0966e+08    294.74704    93093.952    4219.2236     0.942689   -1193.8015    2100.0134    4098.8338    4427.3653    4131.4717   -396.82544     -618.967    271.39597    294.74541 
509670000   5.0967e+08    297.99788    93093.952    3920.6897     0.942689   -1183.1161    2147.0272      3579.08    4594.5295    3588.4596   -1138.9952    551.23651   -22.428062    297.99776 
509680000   5.0968e+08     295.0826    93093.952    3716.0484     0.942689   -1184.9312    2112.6336    2769.1411    4633.6466    3745.3576   -1546.6072   -443.97919    288.69797    295.08153 
509690000   5.0969e+08    296.33088    93093.952    4201.5203     0.942689    -1218.885    2092.6295    3733.3724    4432.5456    4438.6428   -1414.3942    394.98303   -269.03421    296.33331 
509700000    5.097e+08     293.0037    93093.952     4210.508     0.942689   -1232.7634    2041.5697    4983.5693    3878.4202    3769.5346   -149.36496    491.57357    552.09245    293.00155 
509710000   5.0971e+08    294.21453    93093.952    4652.3109     0.942689   -1214.8292    2073.0349    4020.7646    5655.9676    4280.2006   -1601.1747    278.78412    601.32103    294.21339 
509720000   5.0972e+08    286.59726    93093.952    4229.3372     0.942689    -1147.156    2055.5846    4504.6375    3822.9514    4360.4227   -830.25129    176.36278   -101.05831    286.59863 
509730000   5.0973e+08    288.05278    93093.952    4584.3608     0.942689   -1222.7099    1996.2963    4481.6963    4869.5673    4401.8188    1.3169767   -234.80316   -393.86193    288.04974 
509740000   5.0974e+08    288.13583    93093.952    4489.2496     0.942689   -1226.3466    1993.5876    4889.3499     4529.247    4049.1517   -605.65454    424.47497   -708.27874    288.13787 
509750000   5.0975e+08    292.42137    93093.952    4144.2101     0.942689   -1164.2488    2103.5766    3567.9684    4417.5823    4447.0796   -567.94691    485.54126   -261.51857    292.42331 
509760000   5.0976e+08    295.10414    93093.952    4049.2169     0.942689   -1188.8657    2108.9398    2924.4663    3503.0535    5720.1309   -1332.4324    -418.3131    441.52057    295.10109 
509770000   5.0977e+08    288.34089    93093.952    4219.0008     0.942689   -1248.4152    1973.8106    3890.1262    4522.1292     4244.747   -1054.3944   -603.93751   -17.552444    288.34333 
509780000   5.0978e+08    291.76066    93093.952    4237.1171     0.942689   -1209.5423    2050.8996    4386.0245    4483.9677    3841.3591   -347.02531   -708.44224   -376.26902    291.76013 
509790000   5.0979e+08    291.77182    93093.952    3975.0985     0.942689   -1153.2705    2107.2962    3929.5848      3780.59    4215.1208   -116.60553    256.85459    635.64139    291.77406 
509800000    5.098e+08    288.06215    93093.952    4744.3449     0.942689   -1150.2553    2068.8556    4636.2093    4202.4898    5394.3357   -179.67807   -206.05441    397.06296    288.06468 
509810000   5.0981e+08    287.82087    93093.952    4437.1571     0.942689   -1116.1835    2100.2311    4368.5744    4510.1511    4432.7457   -409.38799    182.71129   -668.25325    287.82279 
509820000   5.0982e+08    297.67742    93093.952    4624.9185     0.942689    -1152.345    2174.2171    4336.4136    4488.9314    5049.4106   -913.66284    716.65446    348.39179    297.67771 
509830000   5.0983e+08    297.54998    93093.952     4003.057     0.942689   -1097.1285    2228.0094    2986.0203    4747.2034    4275.9472   -1169.4995   -571.54967   -218.75705    297.54911 
509840000   5.0984e+08    285.38469    93093.952     3618.099     0.942689   -1261.6591     1927.531     3103.357    3827.1104    3923.8295   -579.61132    172.87501   -303.21858    285.38366 
509850000   5.0985e+08     293.5796    93093.952    4293.7099     0.942689    -1221.353    2059.4158    4153.8257    4990.9746    3736.3294   -558.93441   -461.53689   -131.97098    293.57749 
509860000   5.0986e+08    295.66282    93093.952    3607.9617     0.942689   -1251.7115    2052.3373    2717.4015    3604.6471    4501.8364   -676.18895     480.8565    -818.5298    295.66525 
509870000   5.0987e+08    292.64758    93093.952    4395.3788     0.942689   -1201.8401    2068.5132    4567.1627    4436.6237    4182.3499    413.31855   -281.03975    134.86249    292.64531 
509880000   5.0988e+08    289.88579    93093.952    4887.4096     0.942689   -1128.6089    2110.8812    4557.9618     4354.024     5750.243   -1171.6252     732.5318    326.01649    289.88415 
509890000   5.0989e+08    285.51583    93093.952    4473.1666     0.942689   -1201.9857    1988.6699    4739.5849    3930.3777    4749.5373    -851.4126   -504.99872   -1395.2775    285.51585 
509900000    5.099e+08    296.09688    93093.952    4780.2981     0.942689   -1198.2743    2110.6252    4293.7529    5185.0697    4862.0718   -582.11394    422.72597   -274.65804    296.09585 
509910000   5.0991e+08    295.24068    93093.952    3572.0306     0.942689   -1305.2645    1994.0669    3329.3484      3694.87    3691.8734   -185.49814    713.11554    -44.22228    295.24128 
509920000   5.0992e+08    295.46365    93093.952    3969.6284     0.942689   -1145.7574    2156.0657    3741.4463    4019.6986    4147.7404    -735.0476    456.99082    103.83952    295.46088 
509930000   5.0993e+08    290.48679    93093.952    3965.3892     0.942689   -1109.0533    2137.1531    2857.1906     4614.857      4424.12    -1429.956   -142.67019   -318.51793    290.48799 
509940000   5.0994e+08     291.0224    93093.952    4011.5774     0.942689    -1204.751    2047.4409      3947.29    4407.1713    3680.2708   -1270.3669   -659.64723  -0.10327673     291.0214 
509950000   5.0995e+08    298.89982    93093.952    3933.3895     0.942689   -1206.7222    2133.5003    2857.6396    5062.1043    3880.4247   -1326.6386    175.28108   -814.11583    298.90397 
509960000   5.0996e+08    296.33249    93093.952    4945.9883     0.942689   -1196.0025      2115.53    4124.7113    4964.4978     5748.756   -1673.9909    272.33148   -76.598054    296.33194 
509970000   5.0997e+08    293.05148    93093.952    4445.3084     0.942689   -1147.3967    2127.4702    4299.5181    3846.5121    5189.8952   -452.67297    741.48764    11.361099    293.05448 
509980000   5.0998e+08    294.15669    93093.952    4107.7004     0.942689   -1196.6898    2090.5279    3512.4502    4623.7589    4186.8919   -457.43053    127.09189   -27.746451    294.15594 
509990000   5.0999e+08    289.36772    93093.952    3916.6827     0.942689   -1186.8793    2046.8214    2738.1066    4583.1369    4428.8046   -871.91361    -312.6415   -553.38499    289.37001 
510000000      5.1e+08     293.9746    93093.952    4501.8145     0.942689   -1244.5882    2040.5946    4355.6358    4290.5031    4859.3046    5.7479362    255.93263    573.94401    293.96924 
Loop time of 32605.9 on 48 procs for 100000000 steps with 3750 atoms

Pair  time (%) = 11193.3 (34.3289)
Bond  time (%) = 2188.42 (6.71171)
Neigh time (%) = 6088.85 (18.6741)
Comm  time (%) = 9361.99 (28.7125)
Outpt time (%) = 0.998212 (0.00306144)
Other time (%) = 3772.41 (11.5697)

Nlocal:    78.125 ave 90 max 63 min
Histogram: 1 2 2 4 8 9 10 6 4 2
Nghost:    1387.71 ave 1420 max 1351 min
Histogram: 2 0 2 11 3 11 11 4 2 2
Neighs:    6951.69 ave 8262 maGenerated thermo.dat
Done!
stress
average  614.091
square average  380534
number of blocks  500
variance  2.61772562313165281054
pxx
average  3834.22
square average  1.47114*10^07
number of blocks  500
variance  4.50710363759255041162
pyy
average  4483.33
square average  2.01063*10^07
number of blocks  500
variance  3.47911227183027251038
pzz
average  4275.68
square average  1.82877*10^07
number of blocks  500
variance  3.53851313407199323906
xx
average  2181.63
square average  4.75949*10^06
number of blocks  500
variance  .19726581051971474359
yy
average  2183.87
square average  4.76928*10^06
number of blocks  500
variance  .12788197683802045449
zz
average  2183.07
square average  4.7658*10^06
number of blocks  500
variance  .10368317124779700718
xx
average  2227.35
square average  4.97118*10^06
number of blocks  500
variance  4.49265567342969207433
yy
average  2874.8
square average  8.27056*10^06
number of blocks  500
variance  3.48854124241064405392
zz
average  2667.73
square average  7.12309*10^06
number of blocks  500
variance  3.55151998445735906857
pressure, stress.strain, ktensor, virial are all concatenated
averages computed will all accumulated data until now
x 5580 min
Histogram: 2 3 3 5 8 9 11 2 4 1

Total # of neighbors = 333681
Ave neighs/atom = 88.9816
Ave special neighs/atom = 6.26667
Neighbor list builds = 11147879
Dangerous builds = 0
System init for write_restart ...

real	1087m25.068s
user	0m0.077s
sys	0m0.347s
