ITEM: TIMESTEP
0
ITEM: NUMBER OF ATOMS
3125
ITEM: BOX BOUNDS xy xz yz pp pp pp
0 270 0
0 270 0
0 270 0
ITEM: ATOMS id type x y z
1 2 46.108 31.549 48.0177
2 1 46.0563 33.0632 47.8045
3 1 46.0045 34.5773 47.5913
4 1 45.9528 36.0915 47.3782
5 1 45.9011 37.6057 47.165
6 1 45.8494 39.1199 46.9518
7 1 45.7976 40.6341 46.7386
8 1 45.7459 42.1483 46.5254
9 1 45.6942 43.6625 46.3122
10 3 45.6424 45.1767 46.099
11 1 44.8776 44.9663 44.7907
12 1 44.1128 44.756 43.4823
13 1 43.348 44.5457 42.174
14 1 42.5832 44.3353 40.8657
15 1 41.8184 44.125 39.5573
16 2 41.0536 43.9147 38.249
17 1 45.5907 46.6909 45.8858
18 1 45.539 48.2051 45.6726
19 1 45.4872 49.7193 45.4594
20 1 45.4355 51.2334 45.2462
21 1 45.3838 52.7476 45.033
22 1 45.3321 54.2618 44.8198
23 1 45.2803 55.776 44.6067
24 1 45.2286 57.2902 44.3935
25 2 45.1769 58.8044 44.1803
26 2 31.243 43.6808 89.482
27 1 32.7718 43.6846 89.5422
28 1 34.3006 43.6884 89.6024
29 1 35.8294 43.6922 89.6626
30 1 37.3582 43.696 89.7228
31 1 38.887 43.6998 89.783
32 1 40.4158 43.7036 89.8432
33 1 41.9446 43.7074 89.9034
34 1 43.4734 43.7112 89.9636
35 3 45.0023 43.715 90.0238
36 1 44.9996 45.2448 89.9955
37 1 44.9969 46.7745 89.9671
38 1 44.9942 48.3042 89.9387
39 1 44.9915 49.834 89.9104
40 1 44.9888 51.3637 89.882
41 2 44.9861 52.8934 89.8536
42 1 46.5311 43.7188 90.084
43 1 48.0599 43.7226 90.1442
44 1 49.5887 43.7264 90.2044
45 1 51.1175 43.7302 90.2646
46 1 52.6463 43.734 90.3248
47 1 54.1751 43.7378 90.385
48 1 55.7039 43.7416 90.4452
49 1 57.2327 43.7454 90.5054
50 2 58.7615 43.7492 90.5656
60 3 44.8227 43.7475 134.773
67 1 46.3201 43.5841 134.505
68 1 47.8176 43.4206 134.237
69 1 49.315 43.2572 133.969
70 1 50.8125 43.0937 133.701
71 1 52.3099 42.9303 133.433
72 1 53.8073 42.7669 133.165
73 1 55.3048 42.6034 132.897
74 1 56.8022 42.44 132.629
75 2 58.2997 42.2766 132.361
51 2 31.3457 45.2184 137.185
52 1 32.8431 45.055 136.917
53 1 34.3406 44.8915 136.649
54 1 35.838 44.7281 136.381
55 1 37.3354 44.5647 136.113
56 1 38.8329 44.4012 135.845
57 1 40.3303 44.2378 135.577
58 1 41.8278 44.0744 135.309
59 1 43.3252 43.9109 135.041
100 2 43.2976 41.7154 166.674
61 1 45.0338 45.2386 135.043
62 1 45.2449 46.7297 135.313
63 1 45.456 48.2207 135.584
64 1 45.6671 49.7118 135.854
65 1 45.8782 51.2029 136.124
66 2 46.0893 52.694 136.394
99 1 43.6252 42.0895 168.121
98 1 43.9529 42.4635 169.568
97 1 44.2805 42.8376 171.015
96 1 44.6081 43.2116 172.462
95 1 44.9357 43.5857 173.909
94 1 45.2633 43.9598 175.356
93 1 45.591 44.3338 176.803
92 1 45.9186 44.7079 178.25
91 2 37.3448 44.4966 181.863
76 2 49.1948 48.4485 192.719
77 1 48.8671 48.0744 191.272
78 1 48.5395 47.7004 189.825
79 1 48.2119 47.3263 188.378
80 1 47.8843 46.9523 186.931
81 1 47.5567 46.5782 185.484
82 1 47.2291 46.2041 184.037
83 1 46.9014 45.8301 182.591
84 1 46.5738 45.456 181.144
85 3 46.2462 45.082 179.697
86 1 44.7626 44.9844 180.058
87 1 43.2791 44.8868 180.419
88 1 41.7955 44.7893 180.78
89 1 40.3119 44.6917 181.141
90 1 38.8284 44.5941 181.502
101 2 45.5826 31.1852 225.276
102 1 45.3811 32.7019 225.283
103 1 45.1796 34.2185 225.289
104 1 44.9782 35.7352 225.295
105 1 44.7767 37.2519 225.301
106 1 44.5752 38.7685 225.307
107 1 44.3737 40.2852 225.313
108 1 44.1723 41.8018 225.319
109 1 43.9708 43.3185 225.325
110 3 43.7693 44.8352 225.332
111 1 45.2344 45.0314 224.937
112 1 46.6995 45.2276 224.542
113 1 48.1647 45.4238 224.147
114 1 49.6298 45.6201 223.753
115 1 51.0949 45.8163 223.358
116 2 52.56 46.0125 222.963
117 1 43.5678 46.3518 225.338
118 1 43.3663 47.8685 225.344
119 1 43.1649 49.3852 225.35
120 1 42.9634 50.9018 225.356
121 1 42.7619 52.4185 225.362
122 1 42.5604 53.9352 225.368
123 1 42.359 55.4518 225.374
124 1 42.1575 56.9685 225.381
125 2 41.956 58.4851 225.387
126 2 36.763 90.8918 33.9266
127 1 37.6827 90.6534 35.1258
128 1 38.6024 90.415 36.3251
129 1 39.5221 90.1766 37.5243
130 1 40.4418 89.9383 38.7236
131 1 41.3615 89.6999 39.9228
132 1 42.2813 89.4615 41.1221
133 1 43.201 89.2231 42.3213
134 1 44.1207 88.9847 43.5206
135 3 45.0404 88.7464 44.7198
136 1 44.9923 90.2388 45.0534
137 1 44.9442 91.7312 45.3869
138 1 44.8961 93.2236 45.7205
139 1 44.848 94.7161 46.054
140 1 44.7999 96.2085 46.3876
141 2 44.7517 97.7009 46.7211
142 1 45.9601 88.508 45.9191
143 1 46.8798 88.2696 47.1183
144 1 47.7996 88.0312 48.3176
145 1 48.7193 87.7928 49.5168
146 1 49.639 87.5545 50.7161
147 1 50.5587 87.3161 51.9153
148 1 51.4784 87.0777 53.1146
149 1 52.3981 86.8393 54.3138
150 2 53.3179 86.601 55.5131
251 2 55.3776 126.492 48.345
252 1 54.2057 127.449 48.1145
253 1 53.0338 128.405 47.8839
254 1 51.8619 129.361 47.6534
255 1 50.69 130.317 47.4229
256 1 49.5181 131.274 47.1923
257 1 48.3463 132.23 46.9618
258 1 47.1744 133.186 46.7312
259 1 46.0025 134.142 46.5007
261 1 45.0323 134.981 44.7581
262 1 45.234 134.864 43.246
263 1 45.4356 134.746 41.7339
264 1 45.6373 134.629 40.2218
265 1 45.839 134.512 38.7097
266 2 46.0407 134.394 37.1976
151 2 33.1112 86.5072 83.8582
152 1 34.492 86.8567 84.4168
153 1 35.8729 87.2063 84.9754
154 1 37.2537 87.5558 85.5341
155 1 38.6345 87.9054 86.0927
156 1 40.0153 88.2549 86.6513
157 1 41.3961 88.6045 87.21
158 1 42.7769 88.954 87.7686
159 1 44.1578 89.3036 88.3272
160 3 45.5386 89.6531 88.8858
161 1 44.8974 90.0661 90.2122
162 1 44.2563 90.4791 91.5386
163 1 43.6151 90.892 92.865
164 1 42.974 91.305 94.1913
165 1 42.3328 91.718 95.5177
166 2 41.6917 92.131 96.8441
167 1 46.9194 90.0026 89.4445
168 1 48.3002 90.3522 90.0031
169 1 49.681 90.7017 90.5617
170 1 51.0618 91.0513 91.1204
171 1 52.4426 91.4008 91.679
172 1 53.8235 91.7504 92.2376
173 1 55.2043 92.0999 92.7963
174 1 56.5851 92.4495 93.3549
175 2 57.9659 92.799 93.9135
176 2 39.0751 102.475 134.268
177 1 39.8463 101.16 134.4
178 1 40.6174 99.8453 134.532
179 1 41.3886 98.5305 134.664
180 1 42.1597 97.2156 134.796
181 1 42.9309 95.9008 134.928
186 1 44.8066 89.8778 134.913
187 1 43.5977 89.1141 134.369
188 1 42.3888 88.3504 133.824
189 1 41.18 87.5866 133.28
190 1 39.9711 86.8229 132.736
191 2 38.7622 86.0592 132.191
301 2 40.925 121.905 88.2181
302 1 41.4864 123.302 88.4886
303 1 42.0478 124.699 88.7592
304 1 42.6092 126.097 89.0298
305 1 43.1706 127.494 89.3003
306 1 43.732 128.891 89.5709
307 1 44.2933 130.289 89.8415
308 1 44.8547 131.686 90.1121
309 1 45.4161 133.083 90.3826
310 3 45.9775 134.481 90.6532
361 1 45.22 134.908 134.945
362 1 46.5948 134.33 134.604
363 1 47.9695 133.751 134.262
364 1 49.3443 133.173 133.92
365 1 50.7191 132.595 133.578
366 2 52.0939 132.017 133.237
225 2 56.8488 90.519 172.887
224 1 55.585 90.3398 173.73
223 1 54.3213 90.1606 174.574
222 1 53.0575 89.9813 175.417
221 1 51.7937 89.8021 176.261
220 1 50.53 89.6229 177.105
182 1 43.702 94.586 135.061
183 1 44.4732 93.2712 135.193
184 1 45.2443 91.9564 135.325
185 3 46.0155 90.6415 135.457
219 1 49.2662 89.4437 177.948
218 1 48.0024 89.2645 178.792
217 1 46.7387 89.0852 179.635
216 2 42.0828 96.7201 177.058
215 1 42.6482 95.4178 177.628
214 1 43.2135 94.1154 178.198
192 1 46.7866 89.3267 135.589
193 1 47.5577 88.0119 135.722
194 1 48.3289 86.6971 135.854
195 1 49.1 85.3822 135.986
196 1 49.8712 84.0674 136.118
197 1 50.6423 82.7526 136.25
198 1 51.4135 81.4378 136.382
199 1 52.1846 80.1229 136.515
200 2 52.9558 78.8081 136.647
201 2 34.101 87.2931 188.071
202 1 35.3647 87.4723 187.228
203 1 36.6285 87.6515 186.384
204 1 37.8923 87.8307 185.541
205 1 39.156 88.0099 184.697
206 1 40.4198 88.1892 183.853
207 1 41.6836 88.3684 183.01
208 1 42.9474 88.5476 182.166
209 1 44.2111 88.7268 181.323
210 3 45.4749 88.906 180.479
211 1 44.9095 90.2084 179.909
212 1 44.3442 91.5107 179.339
213 1 43.7789 92.8131 178.768
368 1 44.1936 134.596 138.194
369 1 44.3678 134.151 139.647
370 1 44.5421 133.706 141.101
371 1 44.7163 133.261 142.554
372 1 44.8905 132.816 144.008
373 1 45.0647 132.371 145.461
374 1 45.239 131.926 146.915
375 2 45.4132 131.482 148.368
416 2 38.194 133.759 176.197
415 1 39.513 133.999 176.934
414 1 40.832 134.24 177.671
413 1 42.151 134.48 178.408
412 1 43.47 134.721 179.145
411 1 44.789 134.962 179.882
409 1 45.5772 134.422 181.824
408 1 45.0464 133.642 183.028
407 1 44.5156 132.862 184.232
406 1 43.9848 132.082 185.437
405 1 43.454 131.302 186.641
404 1 42.9232 130.521 187.846
403 1 42.3924 129.741 189.05
402 1 41.8616 128.961 190.254
401 2 41.3309 128.181 191.459
226 2 31.2288 88.7341 224.876
227 1 32.7587 88.732 224.886
228 1 34.2887 88.7299 224.896
229 1 35.8187 88.7278 224.907
230 1 37.3486 88.7257 224.917
231 1 38.8786 88.7236 224.927
232 1 40.4086 88.7215 224.938
233 1 41.9385 88.7194 224.948
234 1 43.4685 88.7173 224.959
235 3 44.9984 88.7152 224.969
236 1 45.0003 90.2447 225.006
237 1 45.0022 91.7743 225.043
238 1 45.004 93.3038 225.08
239 1 45.0059 94.8334 225.117
240 1 45.0077 96.3629 225.154
241 2 45.0096 97.8925 225.191
242 1 46.5284 88.7131 224.979
243 1 48.0584 88.711 224.99
244 1 49.5883 88.7089 225
245 1 51.1183 88.7067 225.01
246 1 52.6483 88.7046 225.021
247 1 54.1782 88.7025 225.031
248 1 55.7082 88.7004 225.042
249 1 57.2381 88.6983 225.052
250 2 58.7681 88.6962 225.062
451 2 34.6901 133.334 215.934
452 1 35.9144 133.45 216.844
453 1 37.1387 133.566 217.754
454 1 38.363 133.682 218.665
455 1 39.5873 133.798 219.575
456 1 40.8116 133.915 220.485
457 1 42.0358 134.031 221.395
458 1 43.2601 134.147 222.306
459 1 44.4844 134.263 223.216
460 3 45.7087 134.379 224.126
467 1 46.933 134.495 225.036
468 1 48.1573 134.611 225.947
469 1 49.3815 134.727 226.857
470 1 50.6058 134.843 227.767
471 1 51.8301 134.96 228.677
300 2 31.2974 178.158 45.3342
299 1 32.8247 178.241 45.3719
298 1 34.352 178.324 45.4095
297 1 35.8793 178.407 45.4471
296 1 37.4066 178.49 45.4847
295 1 38.9338 178.573 45.5223
294 1 40.4611 178.657 45.5599
293 1 41.9884 178.74 45.5975
292 1 43.5157 178.823 45.6351
260 3 44.8306 135.099 46.2702
291 2 44.7362 186.722 40.8675
290 1 44.7873 185.419 41.6684
289 1 44.8384 184.116 42.4693
288 1 44.8896 182.814 43.2701
287 1 44.9407 181.511 44.071
286 1 44.9918 180.208 44.8719
267 1 43.6587 136.055 46.0396
268 1 42.4868 137.011 45.8091
269 1 41.3149 137.967 45.5785
270 1 40.143 138.924 45.348
271 1 38.9711 139.88 45.1175
272 1 37.7992 140.836 44.8869
273 1 36.6274 141.792 44.6564
274 1 35.4555 142.749 44.4259
275 2 34.2836 143.705 44.1953
276 2 58.7885 179.653 46.0112
277 1 57.2612 179.57 45.9736
278 1 55.7339 179.487 45.936
279 1 54.2066 179.404 45.8984
280 1 52.6794 179.321 45.8608
281 1 51.1521 179.238 45.8232
282 1 49.6248 179.155 45.7856
283 1 48.0975 179.072 45.748
284 1 46.5702 178.989 45.7103
285 3 45.043 178.906 45.6727
350 2 57.5806 176.189 85.7025
349 1 56.1734 176.478 86.2287
348 1 54.7662 176.768 86.7549
347 1 53.359 177.057 87.281
346 1 51.9518 177.347 87.8072
345 1 50.5446 177.637 88.3334
344 1 49.1374 177.926 88.8596
343 1 47.7302 178.216 89.3858
342 1 46.323 178.505 89.912
341 2 45.5171 187.404 87.3086
311 1 44.8138 135.099 89.8756
312 1 43.6501 135.717 89.098
313 1 42.4864 136.335 88.3204
314 1 41.3227 136.953 87.5428
315 1 40.159 137.571 86.7651
316 2 38.9953 138.189 85.9875
317 1 46.5389 135.878 90.9238
318 1 47.1003 137.275 91.1943
319 1 47.6617 138.673 91.4649
320 1 48.223 140.07 91.7355
321 1 48.7844 141.467 92.006
322 1 49.3458 142.865 92.2766
323 1 49.9072 144.262 92.5472
324 1 50.4686 145.659 92.8177
325 2 51.03 147.057 93.0883
326 2 32.2511 181.401 95.1738
327 1 33.6583 181.111 94.6476
328 1 35.0655 180.822 94.1214
329 1 36.4727 180.532 93.5952
330 1 37.8799 180.242 93.0691
331 1 39.2871 179.953 92.5429
332 1 40.6942 179.663 92.0167
333 1 42.1014 179.374 91.4905
334 1 43.5086 179.084 90.9643
335 3 44.9158 178.795 90.4381
336 1 45.016 180.23 89.9165
337 1 45.1162 181.664 89.3949
338 1 45.2165 183.099 88.8734
339 1 45.3167 184.534 88.3518
340 1 45.4169 185.969 87.8302
351 2 42.2772 139.49 122.206
352 1 42.4514 139.045 123.659
353 1 42.6256 138.6 125.113
354 1 42.7998 138.155 126.566
355 1 42.9741 137.71 128.02
356 1 43.1483 137.265 129.473
357 1 43.3225 136.82 130.927
358 1 43.4967 136.375 132.38
359 1 43.671 135.93 133.834
376 2 46.7936 166.529 132.436
377 1 46.6845 168.045 132.612
378 1 46.5755 169.561 132.788
379 1 46.4664 171.077 132.964
380 1 46.3574 172.593 133.14
381 1 46.2483 174.108 133.315
382 1 46.1393 175.624 133.491
383 1 46.0302 177.14 133.667
384 1 45.9212 178.656 133.843
385 3 45.8121 180.172 134.019
392 1 45.7031 181.688 134.195
393 1 45.594 183.204 134.371
394 1 45.485 184.72 134.546
395 1 45.3759 186.236 134.722
396 1 45.2669 187.752 134.898
450 2 57.9385 182.867 183.955
449 1 56.5316 182.415 183.558
448 1 55.1247 181.964 183.161
447 1 53.7178 181.512 182.764
446 1 52.3109 181.061 182.366
445 1 50.904 180.61 181.969
444 1 49.4971 180.158 181.572
443 1 48.0902 179.707 181.175
442 1 46.6833 179.255 180.777
360 3 43.8452 135.486 135.287
441 2 43.3019 187.348 177.664
440 1 43.631 185.924 178.117
439 1 43.9601 184.5 178.57
438 1 44.2892 183.076 179.022
437 1 44.6182 181.652 179.475
436 1 44.9473 180.228 179.928
367 1 44.0194 135.041 136.741
435 3 45.2764 178.804 180.38
434 1 43.8695 178.352 179.983
433 1 42.4627 177.901 179.586
432 1 41.0558 177.45 179.189
431 1 39.6489 176.998 178.791
430 1 38.242 176.547 178.394
429 1 36.8351 176.095 177.997
428 1 35.4282 175.644 177.6
427 1 34.0213 175.193 177.202
426 2 32.6144 174.741 176.805
425 2 50.885 142.223 169.779
424 1 50.3542 141.443 170.984
423 1 49.8235 140.663 172.188
422 1 49.2927 139.883 173.393
421 1 48.7619 139.103 174.597
420 1 48.2311 138.322 175.802
419 1 47.7003 137.542 177.006
418 1 47.1695 136.762 178.21
386 1 44.8453 179.967 135.187
387 1 43.8785 179.762 136.355
388 1 42.9117 179.557 137.523
389 1 41.9449 179.352 138.691
390 1 40.9781 179.147 139.859
391 2 40.0113 178.942 141.027
417 1 46.6387 135.982 179.415
410 3 46.1079 135.202 180.619
400 2 44.8307 193.816 135.602
399 1 44.9397 192.3 135.426
398 1 45.0488 190.784 135.25
397 1 45.1578 189.268 135.074
500 2 40.3872 192.024 230.041
499 1 40.9559 190.768 229.377
498 1 41.5246 189.513 228.713
497 1 42.0933 188.257 228.049
496 1 42.662 187.001 227.385
495 1 43.2308 185.746 226.721
494 1 43.7995 184.49 226.057
493 1 44.3682 183.234 225.393
492 1 44.9369 181.979 224.729
491 2 41.8941 175.558 230.74
461 1 44.865 135.118 225.166
462 1 44.0213 135.858 226.207
463 1 43.1777 136.597 227.247
464 1 42.334 137.336 228.288
465 1 41.4903 138.076 229.328
466 2 40.6466 138.815 230.369
490 1 42.496 176.419 229.628
489 1 43.0979 177.28 228.515
488 1 43.6999 178.141 227.403
487 1 44.3018 179.001 226.29
486 1 44.9037 179.862 225.178
472 1 53.0544 135.076 229.587
473 1 54.2787 135.192 230.498
474 1 55.503 135.308 231.408
475 2 56.7273 135.424 232.318
476 2 50.624 169.422 218.09
477 1 50.0553 170.678 218.754
478 1 49.4866 171.934 219.418
479 1 48.9179 173.189 220.082
480 1 48.3492 174.445 220.746
481 1 47.7805 175.7 221.41
482 1 47.2118 176.956 222.074
483 1 46.643 178.212 222.738
484 1 46.0743 179.467 223.402
485 3 45.5056 180.723 224.066
501 2 34.4646 221.281 36.8488
502 1 35.6851 221.564 37.7273
503 1 36.9055 221.846 38.6058
504 1 38.126 222.128 39.4843
505 1 39.3464 222.41 40.3628
506 1 40.5669 222.692 41.2413
507 1 41.7874 222.974 42.1198
508 1 43.0078 223.257 42.9983
509 1 44.2283 223.539 43.8768
510 3 45.4487 223.821 44.7553
511 1 44.9145 225.225 45.0466
512 1 44.3803 226.628 45.3379
513 1 43.8461 228.032 45.6292
514 1 43.3119 229.436 45.9205
515 1 42.7777 230.84 46.2118
516 2 42.2435 232.244 46.5031
517 1 46.6692 224.103 45.6338
518 1 47.8897 224.385 46.5123
519 1 49.1101 224.667 47.3908
520 1 50.3306 224.949 48.2693
521 1 51.551 225.232 49.1478
522 1 52.7715 225.514 50.0263
523 1 53.992 225.796 50.9048
524 1 55.2124 226.078 51.7834
525 2 56.4329 226.36 52.6619
526 2 32.0111 228.438 93.2758
527 1 33.4057 227.922 92.9162
528 1 34.8004 227.406 92.5566
529 1 36.1951 226.889 92.1971
530 1 37.5897 226.373 91.8375
531 1 38.9844 225.857 91.4779
532 1 40.3791 225.341 91.1183
533 1 41.7737 224.824 90.7587
534 1 43.1684 224.308 90.3992
535 3 44.5631 223.792 90.0396
536 1 45.0832 225.23 89.9925
537 1 45.6034 226.668 89.9454
538 1 46.1236 228.106 89.8982
539 1 46.6437 229.544 89.8511
540 1 47.1639 230.982 89.804
541 2 47.6841 232.421 89.7569
542 1 45.9577 223.276 89.68
543 1 47.3524 222.76 89.3204
544 1 48.7471 222.243 88.9608
545 1 50.1417 221.727 88.6012
546 1 51.5364 221.211 88.2417
547 1 52.9311 220.695 87.8821
548 1 54.3257 220.178 87.5225
549 1 55.7204 219.662 87.1629
550 2 57.1151 219.146 86.8033
560 3 46.1646 224.529 134.73
567 1 46.5314 225.837 134.027
568 1 46.8982 227.146 133.325
569 1 47.265 228.455 132.623
570 1 47.6318 229.764 131.92
571 1 47.9985 231.073 131.218
572 1 48.3653 232.382 130.516
573 1 48.7321 233.691 129.813
574 1 49.0989 234.999 129.111
575 2 49.4657 236.308 128.409
551 2 42.8636 212.749 141.051
552 1 43.2304 214.058 140.348
553 1 43.5972 215.367 139.646
554 1 43.9639 216.675 138.944
555 1 44.3307 217.984 138.241
556 1 44.6975 219.293 137.539
557 1 45.0643 220.602 136.837
558 1 45.4311 221.911 136.134
559 1 45.7978 223.22 135.432
600 2 46.1395 229.948 167.136
561 1 44.7782 225.09 135.052
562 1 43.3917 225.651 135.373
563 1 42.0052 226.212 135.695
564 1 40.6188 226.774 136.017
565 1 39.2323 227.335 136.339
566 2 37.8458 227.896 136.661
599 1 46.1202 229.312 168.527
598 1 46.1008 228.676 169.919
597 1 46.0815 228.04 171.31
596 1 46.0621 227.404 172.702
595 1 46.0428 226.768 174.093
594 1 46.0235 226.132 175.484
593 1 46.0041 225.496 176.876
592 1 45.9848 224.86 178.267
591 2 39.0696 229.77 182.098
576 2 45.7913 218.499 192.181
577 1 45.8107 219.135 190.789
578 1 45.83 219.771 189.398
579 1 45.8493 220.407 188.007
580 1 45.8687 221.043 186.615
581 1 45.888 221.679 185.224
582 1 45.9074 222.315 183.833
583 1 45.9267 222.951 182.441
584 1 45.9461 223.587 181.05
585 3 45.9654 224.223 179.658
586 1 44.8161 225.148 180.065
587 1 43.6668 226.072 180.472
588 1 42.5175 226.997 180.878
589 1 41.3682 227.921 181.285
590 1 40.2189 228.846 181.692
601 2 31.1821 224.43 225.072
602 1 32.7078 224.421 225.187
603 1 34.2334 224.412 225.301
604 1 35.7591 224.403 225.416
605 1 37.2848 224.394 225.531
606 1 38.8104 224.385 225.646
607 1 40.3361 224.375 225.76
608 1 41.8618 224.366 225.875
609 1 43.3874 224.357 225.99
610 3 44.9131 224.348 226.104
611 1 45.0166 225.124 224.79
612 1 45.12 225.9 223.475
613 1 45.2234 226.676 222.16
614 1 45.3269 227.452 220.846
615 1 45.4303 228.228 219.531
616 2 45.5338 229.003 218.216
617 1 46.4388 224.339 226.219
618 1 47.9644 224.33 226.334
619 1 49.4901 224.321 226.448
620 1 51.0158 224.312 226.563
621 1 52.5415 224.303 226.678
622 1 54.0671 224.294 226.792
623 1 55.5928 224.285 226.907
624 1 57.1185 224.276 227.022
625 2 58.6441 224.267 227.137
626 2 78.7634 37.4718 47.8861
627 1 80.0753 38.1818 47.5462
628 1 81.3873 38.8918 47.2063
629 1 82.6993 39.6018 46.8665
630 1 84.0113 40.3118 46.5266
631 1 85.3233 41.0218 46.1867
632 1 86.6353 41.7318 45.8469
633 1 87.9473 42.4418 45.507
634 1 89.2592 43.1518 45.1671
635 3 90.5712 43.8618 44.8273
636 1 89.8912 45.2168 45.0329
637 1 89.2112 46.5719 45.2385
638 1 88.5311 47.9269 45.4442
639 1 87.8511 49.282 45.6498
640 1 87.1711 50.637 45.8554
641 2 86.491 51.9921 46.0611
642 1 91.8832 44.5717 44.4874
643 1 93.1952 45.2817 44.1475
644 1 94.5072 45.9917 43.8077
645 1 95.8192 46.7017 43.4678
646 1 97.1312 47.4117 43.1279
647 1 98.4431 48.1217 42.7881
648 1 99.7551 48.8317 42.4482
649 1 101.067 49.5417 42.1083
650 2 102.379 50.2517 41.7685
1261 1 134.846 44.8673 45.1366
1262 1 133.885 44.0378 45.9903
1263 1 132.924 43.2083 46.844
1264 1 131.962 42.3789 47.6977
1265 1 131.001 41.5494 48.5514
1266 2 130.04 40.7199 49.405
1267 1 134.866 45.5544 43.0849
1268 1 133.925 45.412 41.887
1269 1 132.984 45.2696 40.689
1270 1 132.043 45.1272 39.491
1271 1 131.102 44.9848 38.2931
1272 1 130.161 44.8424 37.0951
1273 1 129.22 44.7 35.8971
1274 1 128.279 44.5576 34.6991
1275 2 127.338 44.4152 33.5012
651 2 83.8482 40.4404 101.516
652 1 84.6207 41.0134 100.327
653 1 85.3933 41.5864 99.1368
654 1 86.1659 42.1593 97.947
655 1 86.9385 42.7323 96.7571
656 1 87.7111 43.3053 95.5673
657 1 88.4837 43.8783 94.3775
658 1 89.2562 44.4513 93.1876
659 1 90.0288 45.0242 91.9978
660 3 90.8014 45.5972 90.808
661 1 89.8474 44.8862 89.8461
662 1 88.8933 44.1753 88.8842
663 1 87.9393 43.4643 87.9224
664 1 86.9852 42.7533 86.9605
665 1 86.0312 42.0423 85.9986
666 2 85.0771 41.3313 85.0368
667 1 91.574 46.1702 89.6181
668 1 92.3466 46.7432 88.4283
669 1 93.1191 47.3162 87.2385
670 1 93.8917 47.8892 86.0486
671 1 94.6643 48.4621 84.8588
672 1 95.4369 49.0351 83.669
673 1 96.2095 49.6081 82.4791
674 1 96.9821 50.1811 81.2893
675 2 97.7546 50.7541 80.0994
686 1 90.1058 45.1683 134.857
687 1 90.767 46.22 133.964
688 1 91.4282 47.2717 133.071
689 1 92.0894 48.3234 132.178
690 1 92.7506 49.3751 131.285
691 2 93.4118 50.4268 130.392
697 1 96.8752 38.7827 134.97
698 1 98.1136 37.8937 134.84
699 1 99.3521 37.0047 134.71
700 2 100.59 36.1157 134.58
1310 3 134.417 44.1704 89.2102
1317 1 133.057 44.7498 89.6051
1318 1 131.697 45.3292 90
1319 1 130.338 45.9086 90.3949
1320 1 128.978 46.488 90.7898
1321 1 127.618 47.0674 91.1847
1322 1 126.258 47.6468 91.5795
1323 1 124.898 48.2262 91.9744
1324 1 123.538 48.8056 92.3693
1325 2 122.178 49.385 92.7642
1361 1 134.768 44.9809 134.925
1362 1 133.316 44.8617 134.456
1363 1 131.865 44.7426 133.987
1364 1 130.414 44.6234 133.518
1365 1 128.962 44.5042 133.048
1366 2 127.511 44.385 132.579
676 2 78.2987 52.1174 136.92
677 1 79.5371 51.2284 136.79
678 1 80.7756 50.3394 136.66
679 1 82.014 49.4505 136.53
680 1 83.2524 48.5615 136.4
681 1 84.4909 47.6725 136.27
682 1 85.7293 46.7835 136.14
683 1 86.9677 45.8945 136.01
684 1 88.2062 45.0056 135.88
685 3 89.4446 44.1166 135.75
725 2 95.5316 39.2509 168.703
724 1 94.814 39.7923 169.941
723 1 94.0963 40.3337 171.179
722 1 93.3787 40.8751 172.418
721 1 92.6611 41.4165 173.656
720 1 91.9434 41.9578 174.894
692 1 90.683 43.2276 135.62
693 1 91.9215 42.3386 135.49
694 1 93.1599 41.4496 135.36
695 1 94.3983 40.5606 135.23
696 1 95.6368 39.6717 135.1
719 1 91.2258 42.4992 176.132
718 1 90.5082 43.0406 177.37
717 1 89.7905 43.582 178.608
716 2 95.6951 50.385 180.946
701 2 82.6142 48.9958 190.989
702 1 83.3318 48.4544 189.75
703 1 84.0494 47.913 188.512
704 1 84.7671 47.3717 187.274
705 1 85.4847 46.8303 186.036
706 1 86.2023 46.2889 184.798
707 1 86.92 45.7475 183.56
708 1 87.6376 45.2061 182.322
709 1 88.3553 44.6648 181.084
710 3 89.0729 44.1234 179.846
711 1 90.1766 45.167 180.029
712 1 91.2803 46.2106 180.213
713 1 92.384 47.2542 180.396
714 1 93.4877 48.2978 180.58
715 1 94.5914 49.3414 180.763
1370 1 134.631 42.8802 140.872
1371 1 134.234 42.3252 142.241
1372 1 133.837 41.7702 143.61
1373 1 133.44 41.2152 144.98
1374 1 133.043 40.6602 146.349
1375 2 132.646 40.1052 147.719
1425 2 129.734 54.6178 188.428
1424 1 130.394 53.5082 187.607
1423 1 131.053 52.3986 186.785
1422 1 131.712 51.289 185.964
1421 1 132.372 50.1794 185.142
1420 1 133.031 49.0698 184.32
1419 1 133.69 47.9602 183.499
1418 1 134.35 46.8506 182.677
1416 2 130.895 47.2645 173.648
1415 1 131.691 46.8256 174.879
1414 1 132.486 46.3868 176.11
1413 1 133.282 45.9479 177.341
1412 1 134.077 45.5091 178.572
1411 1 134.873 45.0702 179.803
726 2 91.8785 44.7033 211.302
727 1 91.6249 44.6017 212.807
728 1 91.3712 44.5001 214.312
729 1 91.1176 44.3986 215.818
730 1 90.8639 44.297 217.323
731 1 90.6103 44.1955 218.829
732 1 90.3567 44.0939 220.334
733 1 90.103 43.9924 221.839
734 1 89.8494 43.8908 223.345
735 3 89.5958 43.7893 224.85
736 1 90.077 45.2306 225.029
737 1 90.5582 46.672 225.207
738 1 91.0394 48.1133 225.385
739 1 91.5207 49.5547 225.563
740 1 92.0019 50.9961 225.742
741 2 92.4831 52.4374 225.92
742 1 89.3421 43.6877 226.356
743 1 89.0885 43.5861 227.861
744 1 88.8349 43.4846 229.366
745 1 88.5812 43.383 230.872
746 1 88.3276 43.2815 232.377
747 1 88.074 43.1799 233.883
748 1 87.8203 43.0784 235.388
749 1 87.5667 42.9768 236.893
750 2 87.3131 42.8752 238.399
1451 2 124.042 53.013 222.36
1452 1 125.247 52.0838 222.516
1453 1 126.453 51.1547 222.673
1454 1 127.658 50.2255 222.829
1455 1 128.863 49.2964 222.986
1456 1 130.069 48.3673 223.142
1457 1 131.274 47.4381 223.299
1458 1 132.48 46.509 223.455
1459 1 133.685 45.5798 223.612
1460 3 134.891 44.6507 223.768
751 2 94.8376 77.4217 48.1064
752 1 94.3042 78.773 47.6262
753 1 93.7708 80.1242 47.1461
754 1 93.2373 81.4754 46.6659
755 1 92.7039 82.8266 46.1857
756 1 92.1704 84.1778 45.7056
757 1 91.637 85.5291 45.2254
758 1 91.1036 86.8803 44.7453
759 1 90.5701 88.2315 44.2651
760 3 90.0367 89.5827 43.785
761 1 89.993 90.0795 45.2314
762 1 89.9493 90.5762 46.6779
763 1 89.9057 91.073 48.1243
764 1 89.862 91.5697 49.5708
765 1 89.8183 92.0665 51.0173
766 2 89.7746 92.5632 52.4637
767 1 89.5033 90.9339 43.3048
768 1 88.9698 92.2852 42.8247
769 1 88.4364 93.6364 42.3445
770 1 87.9029 94.9876 41.8644
771 1 87.3695 96.3388 41.3842
772 1 86.8361 97.69 40.9041
773 1 86.3026 99.0413 40.4239
774 1 85.7692 100.392 39.9437
775 2 85.2357 101.744 39.4636
876 2 83.8706 132.864 32.7881
877 1 84.6171 132.977 34.1188
878 1 85.3636 133.09 35.4496
879 1 86.11 133.203 36.7803
880 1 86.8565 133.316 38.1111
881 1 87.6029 133.429 39.4418
882 1 88.3494 133.543 40.7726
883 1 89.0959 133.656 42.1033
884 1 89.8423 133.769 43.4341
885 3 90.5888 133.882 44.7648
892 1 91.3352 133.995 46.0955
893 1 92.0817 134.108 47.4263
894 1 92.8282 134.222 48.757
895 1 93.5746 134.335 50.0878
896 1 94.3211 134.448 51.4185
897 1 95.0675 134.561 52.7493
898 1 95.814 134.674 54.08
899 1 96.5605 134.787 55.4108
900 2 97.3069 134.901 56.7415
1501 2 121.567 90.8132 48.1873
1502 1 123.048 90.5869 47.8755
1503 1 124.528 90.3607 47.5636
1504 1 126.009 90.1345 47.2517
1505 1 127.49 89.9082 46.9399
1506 1 128.971 89.682 46.628
1507 1 130.451 89.4558 46.3161
1508 1 131.932 89.2295 46.0043
1509 1 133.413 89.0033 45.6924
1510 3 134.893 88.7771 45.3805
1758 1 131.691 134.809 44.8278
1759 1 133.119 134.333 45.1016
1760 3 134.547 133.857 45.3754
776 2 89.0711 100.782 98.6108
777 1 89.146 99.5061 97.7701
778 1 89.2209 98.2299 96.9295
779 1 89.2958 96.9537 96.0889
780 1 89.3707 95.6775 95.2482
781 1 89.4456 94.4014 94.4076
782 1 89.5205 93.1252 93.5669
783 1 89.5953 91.849 92.7263
784 1 89.6702 90.5728 91.8857
785 3 89.7451 89.2967 91.045
786 1 90.0485 90.134 89.8009
787 1 90.352 90.9713 88.5569
788 1 90.6554 91.8086 87.3128
789 1 90.9588 92.6459 86.0687
790 1 91.2622 93.4832 84.8246
791 2 91.5656 94.3205 83.5805
792 1 89.82 88.0205 90.2044
793 1 89.8949 86.7443 89.3638
794 1 89.9698 85.4681 88.5231
795 1 90.0447 84.192 87.6825
796 1 90.1196 82.9158 86.8419
797 1 90.1945 81.6396 86.0012
798 1 90.2694 80.3634 85.1606
799 1 90.3443 79.0873 84.3199
800 2 90.4191 77.8111 83.4793
801 2 93.382 101.117 127.501
802 1 92.9751 99.823 128.208
803 1 92.5681 98.5286 128.915
804 1 92.1612 97.2342 129.622
805 1 91.7543 95.9398 130.329
806 1 91.3473 94.6454 131.036
807 1 90.9404 93.351 131.743
808 1 90.5334 92.0566 132.45
809 1 90.1265 90.7622 133.157
810 3 89.7195 89.4678 133.864
817 1 89.3126 88.1734 134.571
926 2 77.2258 129.976 88.3129
927 1 78.6517 130.444 88.6107
928 1 80.0777 130.912 88.9086
929 1 81.5036 131.38 89.2064
930 1 82.9295 131.848 89.5043
931 1 84.3555 132.316 89.8022
932 1 85.7814 132.783 90.1
933 1 87.2073 133.251 90.3979
934 1 88.6333 133.719 90.6957
935 3 90.0592 134.187 90.9936
942 1 91.4851 134.655 91.2914
986 1 90.1919 134.9 134.886
987 1 91.391 134.275 134.17
988 1 92.5902 133.65 133.454
989 1 93.7894 133.024 132.739
990 1 94.9885 132.399 132.023
991 2 96.1877 131.774 131.308
1551 2 121.174 90.2065 90.2406
1552 1 122.695 90.0427 90.2315
1553 1 124.216 89.8788 90.2224
1554 1 125.737 89.715 90.2133
1555 1 127.258 89.5511 90.2042
1556 1 128.78 89.3873 90.1951
1557 1 130.301 89.2234 90.1861
1558 1 131.822 89.0596 90.177
1559 1 133.343 88.8957 90.1679
1560 3 134.864 88.7319 90.1588
1611 1 134.996 90.0315 134.757
1612 1 134.972 90.2284 133.24
1613 1 134.948 90.4253 131.723
1614 1 134.924 90.6222 130.206
1615 1 134.9 90.8191 128.689
1616 2 134.876 91.016 127.172
1851 2 121.387 132.644 89.3706
1852 1 122.911 132.764 89.4316
1853 1 124.435 132.884 89.4926
1854 1 125.959 133.003 89.5536
1855 1 127.483 133.123 89.6146
1856 1 129.007 133.243 89.6756
1857 1 130.531 133.362 89.7367
1858 1 132.055 133.482 89.7977
1859 1 133.58 133.602 89.8587
1951 2 134.349 134.907 121.186
1952 1 134.558 134.881 122.701
1953 1 134.767 134.855 124.217
1954 1 134.976 134.829 125.732
850 2 100.427 87.5637 171.247
849 1 99.3414 87.7506 172.309
848 1 98.256 87.9375 173.371
847 1 97.1707 88.1244 174.433
846 1 96.0853 88.3113 175.495
845 1 94.9999 88.4981 176.557
844 1 93.9146 88.685 177.619
843 1 92.8292 88.8719 178.682
842 1 91.7438 89.0588 179.744
841 2 85.9551 94.6339 175.051
811 1 90.0534 90.1014 135.216
812 1 90.3873 90.7349 136.568
813 1 90.7212 91.3684 137.92
814 1 91.0551 92.0019 139.273
815 1 91.389 92.6355 140.625
816 2 91.7229 93.269 141.977
840 1 86.739 93.7359 176.01
818 1 88.9056 86.8791 135.278
819 1 88.4987 85.5847 135.985
820 1 88.0917 84.2903 136.692
821 1 87.6848 82.9959 137.399
822 1 87.2779 81.7015 138.106
823 1 86.8709 80.4071 138.813
824 1 86.464 79.1127 139.52
825 2 86.057 77.8183 140.227
826 2 80.8902 90.9275 190.364
827 1 81.9756 90.7407 189.302
828 1 83.0609 90.5538 188.24
829 1 84.1463 90.3669 187.178
830 1 85.2317 90.18 186.116
831 1 86.317 89.9932 185.054
832 1 87.4024 89.8063 183.992
833 1 88.4877 89.6194 182.93
834 1 89.5731 89.4325 181.868
835 3 90.6585 89.2456 180.806
836 1 89.8746 90.1437 179.847
837 1 89.0907 91.0417 178.887
838 1 88.3068 91.9398 177.928
839 1 87.5229 92.8378 176.969
976 2 92.6741 129.222 147.277
977 1 92.265 129.922 145.98
978 1 91.856 130.623 144.682
979 1 91.447 131.323 143.385
980 1 91.0379 132.023 142.088
981 1 90.6289 132.724 140.79
982 1 90.2198 133.424 139.493
983 1 89.8108 134.124 138.196
984 1 89.4017 134.825 136.898
1026 2 92.0785 124.395 171.37
1027 1 91.9361 125.502 172.416
1028 1 91.7936 126.61 173.462
1029 1 91.6512 127.718 174.508
1030 1 91.5087 128.825 175.553
1031 1 91.3663 129.933 176.599
1032 1 91.2239 131.041 177.645
1033 1 91.0814 132.148 178.691
1034 1 90.939 133.256 179.737
1035 3 90.7965 134.364 180.782