ITEM: TIMESTEP
6000000
ITEM: NUMBER OF ATOMS
3750
ITEM: BOX BOUNDS xy xz yz pp pp pp
1.1125092653907163e+02 1.5874907346092814e+02 2.8421709430404007e-13
1.1125092653907163e+02 1.5874907346092786e+02 0.0000000000000000e+00
1.1125092653907163e+02 1.5874907346092786e+02 0.0000000000000000e+00
ITEM: ATOMS id mol type mass xu yu zu vx vy vz 
3067 103 4 13.018 1299.12 399.815 64.8713 -0.00444139 -0.00869671 0.00299443 
30 1 2 15.034 1207.07 406.683 20.6214 -0.00428857 0.00723766 0.00191677 
839 28 3 15.034 1207.58 396.364 20.7919 -0.000731153 -0.00191379 -0.00452543 
3098 104 3 15.034 1538.09 403.81 17.4945 0.000222744 0.00106934 -0.00114827 
3072 103 4 13.018 1303.52 400.048 64.3297 0.000288301 -0.00356428 -0.00489966 
3073 103 3 15.034 1304.32 401.329 64.6382 1.45943e-05 0.00198987 -0.00286063 
3069 103 1 14.026 1300.05 398.798 65.5779 0.000522612 -0.00651061 0.00711208 
3094 104 1 14.026 1542.02 406.098 17.3262 0.00169819 -0.00253204 0.00381193 
3070 103 1 14.026 1301.42 398.723 65.0019 -0.000174995 0.00198751 0.00673961 
840 28 2 15.034 1208.85 396.253 18.6307 -0.00177716 -0.00491122 -0.001008 
3091 104 2 15.034 1543.66 407.763 18.2213 -0.000692467 -0.00310013 -0.00732161 
1919 64 3 15.034 1160.5 400.362 21.7439 -0.00582532 -0.00464363 -0.000932699 
1918 64 4 13.018 1159.11 400.913 21.9197 -0.00601278 -0.00369652 -0.0025816 
3071 103 1 14.026 1302.22 399.995 65.2035 0.00183803 0.00513109 -0.00225155 
3095 104 1 14.026 1540.88 405.136 17.5398 -0.00274416 -0.00368644 -0.000508371 
1920 64 2 15.034 1158.74 402.113 20.9321 -0.0025164 0.00482283 0.00320476 
28 1 4 13.018 1206.44 407.922 19.9491 -0.00406988 -0.00188732 0.000965451 
3092 104 4 13.018 1542.75 406.582 18.5878 -0.00253888 0.00198584 0.00228195 
1917 64 1 14.026 1158.03 399.794 21.9268 -0.00510562 0.00324924 0.00579879 
3093 104 3 15.034 1543.51 405.435 19.2924 -0.00371963 0.00693966 -0.00488295 
25 1 1 14.026 1205.37 407.513 16.8356 -0.00300703 -0.00380554 0.00295645 
1934 65 1 14.026 1259.05 398.928 68.8401 0.00305627 -0.00354941 -0.0009519 
3097 104 4 13.018 1539.13 403.696 16.3605 -0.0025619 -0.0027399 -0.00201578 
685 23 1 14.026 1679.15 404.889 23.5102 0.00190653 0.00107413 0.00330599 
675 23 1 14.026 1685.57 404.13 23.3646 -0.00290424 0.00157084 0.00273845 
1534 52 1 14.026 1207.32 397.539 25.3115 0.00436464 -0.00312349 -0.00294826 
682 23 1 14.026 1680.56 405.253 25.6501 0.000431944 0.000919308 0.00366364 
1532 52 4 13.018 1206.76 398.233 26.54 -0.0105734 0.00971828 0.00241027 
1531 52 2 15.034 1206.97 399.78 26.7573 -0.000162351 0.00102998 0.00149036 
679 23 3 15.034 1684.42 408.112 25.4855 -0.00551422 0.0062623 0.000980336 
683 23 4 13.018 1679.33 404.613 25.019 0.00247159 -0.000358977 -0.00463338 
681 23 1 14.026 1680.73 406.745 25.3202 0.00225786 -0.000189252 0.00590355 
676 23 1 14.026 1685.04 405.563 23.5344 0.00666173 -0.00598297 0.00734803 
1533 52 3 15.034 1206.97 397.367 27.7822 -0.0020112 -0.000480043 0.00453355 
677 23 1 14.026 1683.96 405.773 24.5635 0.001007 -0.00273658 -0.00175805 
680 23 1 14.026 1682.1 407.284 25.7537 0.00195979 0.00646393 -0.00177311 
678 23 4 13.018 1683.35 407.208 24.9106 0.00257059 -0.00157254 0.00538815 
673 23 3 15.034 1685.79 401.147 24.8149 -0.00160475 0.00384533 0.00323797 
1916 64 1 14.026 1156.67 400.28 22.4836 -0.00212338 0.00134648 0.00266403 
674 23 1 14.026 1686.52 403.552 24.4041 0.000580362 0.00879208 -0.00869457 
684 23 3 15.034 1679.08 403.124 25.4618 0.00233588 -0.00394785 0.000735991 
896 30 1 14.026 922.302 397.247 32.935 -0.00308607 0.00217817 0.00138731 
899 30 3 15.034 925.899 398.617 32.9075 -0.00509848 0.00295115 0.00346912 
2595 87 1 14.026 1585.09 401.496 76.8568 0.00406162 -1.80955e-05 0.000862468 
898 30 4 13.018 924.52 398.24 32.4169 0.00372841 -0.000476503 -0.00631513 
2644 89 1 14.026 1258.55 406.986 29.682 0.00462997 -0.00322118 0.00540311 
2596 87 1 14.026 1585.37 403.023 77.0112 -0.00584491 0.000474692 0.000980877 
2597 87 1 14.026 1586.72 403.521 76.6177 -0.000259911 -0.00746241 0.00183353 
2598 87 4 13.018 1587.83 402.871 77.4066 -0.00265097 0.00232251 -0.00220215 
897 30 1 14.026 923.398 398.191 33.4807 0.00228828 -0.0035265 0.00274105 
2642 89 4 13.018 1257.91 407.018 31.097 0.00167027 0.000773665 0.00370212 
2600 87 1 14.026 1589.28 402.983 76.8186 -0.00521652 -0.000124043 -0.000752644 
900 30 2 15.034 924.035 399.011 31.1734 -0.00357866 -0.00214296 -0.00168717 
2601 87 1 14.026 1590.32 402.29 77.7491 0.000779794 -0.00165346 0.00385989 
2599 87 3 15.034 1587.83 403.144 78.913 -0.00119383 0.00179445 -0.00205971 
518 18 3 15.034 1442.75 407.347 30.714 -0.00659246 -0.00236281 -0.00594027 
2643 89 3 15.034 1256.57 407.735 31.2248 0.00392315 -0.00829783 -0.00125743 
2641 89 2 15.034 1258.93 407.504 32.1636 -0.0045693 0.00148255 -0.00360003 
2594 87 1 14.026 1583.7 401.074 77.3043 -0.00399921 0.00322995 -0.000276678 
2602 87 1 14.026 1591.58 401.907 76.9984 0.00603557 -0.00354459 -0.00191539 
3553 119 3 15.034 1401.42 402.665 39.7093 -0.00319105 0.00360234 -0.00694498 
3657 122 1 14.026 1492.71 400.8 35.9251 -0.00211518 0.00170823 -0.00151278 
235 8 1 14.026 1207.79 406.699 35.4094 -0.00347694 0.00553014 0.00238103 
3658 122 4 13.018 1491.49 400.259 35.1424 -0.00225718 -0.00370868 0.000470203 
3656 122 1 14.026 1493.89 401.468 35.1692 0.00623041 -0.00440252 -0.00286116 
236 8 1 14.026 1208.63 406.931 36.6998 0.00459655 0.00374227 -0.0138018 
237 8 1 14.026 1210.08 407.264 36.3889 0.0022404 0.00538284 -0.000601178 
3655 122 1 14.026 1494.9 402.316 35.9999 -0.0033777 -0.00557125 0.00191763 
3660 122 2 15.034 1490.58 399.195 35.7658 0.00475402 0.0093022 0.000616504 
233 8 4 13.018 1206.36 406.143 35.6183 -7.14509e-05 0.000830928 0.00102872 
234 8 3 15.034 1206.39 404.799 36.3689 -0.00362583 -0.00103291 -0.00157733 
239 8 3 15.034 1211.09 406.648 38.6604 0.00121443 -0.00017538 -0.000851255 
381 13 1 14.026 1538.6 407.208 -7.73799 0.00110897 -0.00486622 0.00409501 
3653 122 4 13.018 1495.94 403.12 35.1837 -0.00450393 0.0105504 0.00281982 
238 8 4 13.018 1211.08 407.666 37.4826 0.00281477 -0.010321 -0.00288668 
231 8 1 14.026 1204.08 405.361 34.3532 0.00492661 -0.00456158 0.000977177 
232 8 1 14.026 1205.59 405.831 34.2802 -0.00325253 0.000964319 -0.000748422 
386 13 1 14.026 1536.56 402.533 -7.73328 -0.00316705 -0.00449147 0.00405077 
3659 122 3 15.034 1490.73 401.344 34.429 -0.0012986 -0.00127968 0.00394574 
3554 119 1 14.026 1401.32 400.218 39.2377 -0.000910688 0.00189824 0.000934495 
3556 119 1 14.026 1401.03 397.652 38.8875 0.00294191 -0.00243498 -0.0057044 
3558 119 4 13.018 1401.38 396.253 36.8922 -0.0123376 -0.000945571 -0.00225743 
3654 122 3 15.034 1495.28 404.025 34.1572 -0.00372919 0.000614296 0.00164076 
383 13 4 13.018 1537.51 404.887 -7.53316 0.00345547 0.00425114 0.000297705 
3581 120 1 14.026 1017.05 402.364 44.4546 -0.00314512 0.00287007 -0.00419865 
3585 120 1 14.026 1020.21 400.58 43.1367 -0.00816795 -0.00348953 0.00228075 
382 13 1 14.026 1538.74 405.777 -7.27672 -0.0047274 0.00395797 -0.00375486 
878 30 3 15.034 921.32 396.421 44.1481 -0.00371399 0.00544484 -0.000848676 
490 17 1 14.026 1258.7 407.44 42.4765 0.00907739 0.00420054 -0.00710036 
3578 120 3 15.034 1014.37 399.725 44.7219 0.000359308 0.000707242 -0.00812496 
877 30 4 13.018 922.668 397.016 44.5663 0.000116648 5.42855e-05 -0.00534858 
486 17 1 14.026 1255.8 407.158 43.2793 -0.00320635 0.00303942 -0.00213352 
3583 120 3 15.034 1018.55 403.256 42.5098 -0.00110506 -0.0111716 8.82722e-05 
3584 120 1 14.026 1018.77 400.79 43.4652 0.00261223 0.00352057 0.00498201 
487 17 4 13.018 1256.86 407.724 44.1551 -0.000292524 -3.65427e-06 -0.00389264 
3582 120 4 13.018 1018.37 402.262 43.7112 -0.000903269 -0.000982369 0.00118283 
484 17 1 14.026 1253.38 406.436 44.0673 0.00385188 -0.00447543 -0.00394582 
3580 120 1 14.026 1016.86 401.408 45.6563 -0.00555551 0.000161277 0.00644333 
485 17 1 14.026 1254.89 406.311 44.2761 1.24854e-05 -0.00184379 0.0030731 
384 13 3 15.034 1536.32 405.42 -6.69669 -0.00112619 -0.00826138 -0.001739 
482 17 4 13.018 1252.66 405.427 44.9682 0.00652013 -0.00570902 -0.00484442 
3577 120 4 13.018 1014.34 401.151 45.3576 -0.000223288 0.0026389 0.0015572 
3586 120 1 14.026 1021.15 400.945 44.3223 6.92713e-05 0.00143878 -0.00165684 
385 13 1 14.026 1537.76 403.413 -7.32175 0.0019693 0.0039178 -0.00149961 
387 13 1 14.026 1536.82 400.995 -7.46479 0.0023787 -0.000794901 0.00338608 
2340 78 2 15.034 1779.49 403.702 0.929629 0.00926001 0.00266854 0.00366145 
873 30 3 15.034 924.835 399.686 50.0581 -0.00658697 0.00119782 0.00252035 
3419 114 3 15.034 1347.34 397.776 50.0393 -0.000808702 -0.00204402 -0.00318149 
875 30 1 14.026 923.978 398.22 46.535 -0.0023792 -0.00171349 0.00624682 
871 30 2 15.034 926.199 397.959 48.6971 -0.000847674 0.00536518 -0.00699404 
2709 91 1 14.026 1727.55 406.922 3.55721 -0.00451103 -0.000501775 0.000338211 
874 30 1 14.026 923.83 398.576 48.0442 -0.00103164 0.00581795 -0.00191625 
2339 78 3 15.034 1778.63 406.038 1.62952 -0.000613881 0.000996433 -0.0084327 
872 30 4 13.018 925.138 399.077 48.6947 -0.00134234 0.000462328 0.000344045 
3114 104 3 15.034 1539.06 402.47 3.13892 -0.00910289 -0.00314556 0.00158808 
2338 78 4 13.018 1779.4 405.201 0.53968 -0.000513455 0.00063334 0.000734505 
3115 104 1 14.026 1536.86 403.186 1.89043 -0.00222545 0.00448915 -0.00519308 
3579 120 1 14.026 1015.46 401.393 46.4171 -0.00884926 -0.00158256 -0.00501145 
2337 78 1 14.026 1780.85 405.678 0.320327 -0.00838666 -0.00033085 0.00481962 
3113 104 4 13.018 1537.58 402.988 3.22286 -0.000625966 0.00221235 0.00145767 
481 17 2 15.034 1253.07 405.611 46.4479 -0.00454946 -0.00256619 -0.00343797 
876 30 1 14.026 922.827 397.314 46.0911 -0.00676697 0.00131888 -0.000366404 
3112 104 1 14.026 1536.79 402.101 4.21789 0.00652724 0.006045 -0.0120778 
2336 78 1 14.026 1781.59 404.937 -0.850407 0.00269859 0.00376175 -0.0044338 
3089 103 3 15.034 1305.18 406.091 56.7214 0.00199489 -0.0039246 -0.00411162 
195 7 1 14.026 1019.8 397.747 53.582 0.000216511 -0.00534918 -0.00468143 
2714 91 1 14.026 1728.81 406.834 8.45297 -0.000463281 0.00608394 -0.00148058 
2711 91 1 14.026 1728.02 407.104 6.07386 -0.00495949 -0.00179299 -0.00240673 
2710 91 1 14.026 1726.99 406.814 4.96708 -0.00311393 0.000229105 0.000111044 
193 7 3 15.034 1016.96 398.362 52.9061 -0.00469317 0.00396204 -0.00137846 
3107 104 1 14.026 1537.24 401.446 8.3571 0.000697402 -0.00263563 0.00580161 
3088 103 4 13.018 1306.53 406.702 57.2291 -0.0110427 0.00137125 -0.00271853 
1285 43 1 14.026 2683.96 454.787 52.5859 -0.000109811 0.00249994 -0.00453546 
1289 43 3 15.034 2681.01 451.767 53.8259 -0.00124932 0.00342985 -0.00569338 
2712 91 4 13.018 1727.59 406.739 7.55325 0.00394171 0.00300891 0.00401403 
3106 104 1 14.026 1537.79 400.221 9.06936 -0.000893863 -0.00044291 -0.00479904 
1290 43 2 15.034 2682.55 449.946 53.177 0.000965372 -0.00610282 0.00653421 
2713 91 3 15.034 1726.46 407.62 8.05778 -0.00345275 0.000103359 -0.00566504 
1288 43 4 13.018 2682.12 451.38 52.9182 -0.00254705 0.00209924 -0.00023297 
1287 43 1 14.026 2683.23 452.368 52.9899 -0.00501895 0.00535316 0.00215647 
192 7 4 13.018 1017.31 397.379 54.008 0.000477748 -0.00476381 -0.00144076 
190 7 1 14.026 1015.2 396.889 55.3884 -0.00115213 0.00973368 -0.000958823 
1286 43 1 14.026 2682.72 453.832 52.8135 -0.000280627 0.00173994 0.00324412 
191 7 1 14.026 1016.16 396.422 54.3037 -6.95764e-05 0.00329564 -0.000324887 
3111 104 1 14.026 1536.56 402.851 5.55263 -0.00323527 -0.00239479 -0.00844358 
3104 104 1 14.026 1539.52 401.726 10.2328 -0.00139269 -0.00337226 0.00526476 
3081 103 1 14.026 1306.4 400.726 57.1568 -0.00132607 -0.00166022 0.00405991 
2715 91 1 14.026 1728.57 406.684 9.95618 -0.00459766 0.00115827 -0.00919171 
3080 103 1 14.026 1305.88 399.277 57.1297 0.00155383 -0.0121555 0.00992258 
196 7 1 14.026 1021.2 397.025 53.3146 0.00573372 0.0068758 -0.000651451 
194 7 1 14.026 1018.69 396.707 53.779 -0.00128467 -0.00109141 -0.00726631 
3079 103 3 15.034 1303.77 397.828 57.8024 -0.00385303 -0.000253131 -4.54217e-05 
3100 104 1 14.026 1539.63 402.954 13.9583 0.00424698 -0.00185787 0.00427755 
2716 91 1 14.026 1729.66 407.144 10.9006 0.00729118 0.000619047 -0.00325966 
3099 104 1 14.026 1538.56 403.341 14.9644 0.00666029 -0.00197963 0.00381338 
3075 103 1 14.026 1304.27 399.261 62.0055 -0.0133094 -0.00218019 9.32576e-05 
3101 104 1 14.026 1539.02 402.787 12.5763 -0.00288958 0.00233042 -0.00196133 
3074 103 1 14.026 1303.11 399.872 62.852 -0.00215233 -0.00218281 0.00895696 
3103 104 3 15.034 1541.13 403.36 11.2159 -0.00493161 -0.00739242 0.00376926 
2717 91 1 14.026 1729.29 407.083 12.3981 -0.00192293 -0.000107954 -0.00286022 
2720 91 1 14.026 1731.85 407.64 12.9228 0.000467203 -0.00692023 -0.00439867 
3076 103 1 14.026 1303.98 399.33 60.4799 -0.0041612 0.00455077 0.00163859 
3066 103 1 14.026 1298.77 399.566 63.4762 0.00440226 -0.000580997 0.00268791 
2718 91 4 13.018 1730.31 407.769 13.3217 -0.000622351 0.00332121 0.00390359 
3102 104 4 13.018 1540.04 402.313 11.5528 -0.000579786 -0.000477487 -0.0012547 
2220 74 2 15.034 1733.43 404.124 14.1062 0.00506599 0.00208253 0.0086013 
3078 103 4 13.018 1304.72 399.047 58.1113 -0.00172259 0.000449801 0.00109596 
23 1 4 13.018 1204.04 407.784 16.2292 -0.0109885 -0.00439091 0.00394244 
3077 103 1 14.026 1305.19 399.145 59.6057 -0.003361 -0.000788421 -0.0145053 
3096 104 1 14.026 1540.14 404.842 16.2618 0.00121085 0.00216866 0.00530901 
3105 104 1 14.026 1538.39 400.635 10.3902 -0.00215507 -0.00438367 0.00325259 
426 15 1 14.026 1731.85 419.235 19.5801 -0.00408864 -0.000598481 -0.00370794 
2369 79 3 15.034 1821.24 412.627 21.2478 0.002417 -0.00531556 -0.00361415 
2366 79 1 14.026 1822.76 413.044 18.4409 0.00220337 0.000309694 -0.00756502 
1651 56 2 15.034 494.351 367.105 -25.9617 -0.000403657 -0.001702 0.00190965 
421 15 2 15.034 1729.75 418.788 16.4768 -0.000718521 -0.00102694 -0.00226524 
26 1 1 14.026 1206.04 408.753 17.5212 0.00562819 0.00220477 0.00292099 
2798 94 3 15.034 2018.49 416.25 20.0037 0.00106219 -0.00612667 -0.000813939 
29 1 3 15.034 1206.26 409.07 20.9143 0.00652608 -0.00418084 0.000337763 
2367 79 1 14.026 1821.34 412.549 18.7195 -0.00511406 -0.00413906 0.00377606 
2364 79 3 15.034 1825.55 411.66 17.3217 -0.00154776 -0.0089722 0.00279095 
2791 94 2 15.034 2017.92 412.163 20.8528 -0.0065095 0.00273771 -0.00167034 
2363 79 4 13.018 1824.67 412.764 16.7264 0.00259181 -0.00139179 -3.35342e-05 
2365 79 1 14.026 1823.21 412.498 17.0462 0.00601921 -0.00943643 0.00246 
424 15 1 14.026 1730.45 417.455 18.4753 -0.00354567 4.21364e-06 0.00154452 
27 1 1 14.026 1207.09 408.551 18.6656 0.00374776 0.00428958 0.000220668 
425 15 1 14.026 1730.47 418.624 19.4 -0.00322884 0.00150109 0.00241143 
422 15 4 13.018 1730.79 417.863 17.0195 0.00250581 -0.00651913 -0.00140364 
540 18 2 15.034 1447.88 413.331 27.3086 0.00333088 0.00291007 -0.00147917 
1659 56 1 14.026 497.516 371.398 -21.8722 0.00536067 -0.00231734 0.00204924 
1246 42 1 14.026 1679.28 416.983 26.6549 0.00513918 -0.00473372 -0.00750216 
2793 94 3 15.034 2017.89 411.696 23.4464 -0.00580221 -0.00662569 0.000400674 
514 18 1 14.026 1441.88 410.862 27.0672 -0.00342029 3.07722e-05 0.00171322 
1654 56 1 14.026 494.959 369.364 -24.8321 -0.000182121 0.0031706 -0.00435011 
1653 56 3 15.034 494.848 367.318 -23.4318 0.00146037 0.000219912 -0.00925164 
511 18 2 15.034 1443.55 411.216 25.173 -0.00087456 -0.00375233 0.00128303 
513 18 3 15.034 1443.78 412.688 27.3369 -0.00756517 -0.00626509 0.0010769 
1655 56 1 14.026 495.013 370.282 -23.5801 0.00284019 -0.00838032 0.00305395 
1656 56 1 14.026 495.764 371.608 -23.7145 -0.0025775 -0.00315193 0.00374679 
512 18 4 13.018 1443.29 411.34 26.6977 0.00404802 0.004148 0.00263942 
1657 56 4 13.018 497.257 371.627 -23.4245 0.00888263 -0.00188729 -0.00433102 
2792 94 4 13.018 2018.67 412.16 22.1653 -0.000547345 0.00223488 -0.0096312 
1652 56 4 13.018 494.297 368.001 -24.6902 -0.00193734 -0.00241623 0.0109508 
521 18 1 14.026 1443.73 410.774 33.6859 0.000387425 -0.00472775 -0.00192893 
1251 42 1 14.026 1679.34 418.858 31.0722 -0.00132646 0.00781968 -0.005003 
520 18 1 14.026 1443.16 409.654 32.8363 -0.000847872 0.00332533 0.00705644 
1248 42 4 13.018 1680.44 417.712 28.8946 0.00218418 -0.00348778 0.00959124 
519 18 1 14.026 1443.37 409.874 31.3089 -0.00109048 -0.000484214 0.00385779 
1252 42 1 14.026 1679.05 418.752 32.5484 -0.00665898 -0.00235588 0.00475715 
515 18 1 14.026 1441.63 410.424 28.5301 -0.00463657 0.00383034 -2.64418e-05 
516 18 1 14.026 1442.67 409.315 28.959 -0.00646185 7.88395e-05 -0.00471475 
1250 42 1 14.026 1680.33 417.837 30.4251 -0.002979 0.00544271 -0.00312534 
1667 56 1 14.026 495.412 371.885 -14.53 -0.0117306 0.00401174 0.00274875 
420 14 2 15.034 1584.2 414.073 30.7379 -0.00246778 0.00737531 -0.0116197 
841 29 2 15.034 688.949 370.033 30.9242 -0.00187915 0.00262982 0.00341725 
517 18 4 13.018 1442.58 408.855 30.4343 -0.00399201 0.00355027 0.00635403 
1249 42 3 15.034 1681.88 417.279 28.5155 0.00422661 0.00270521 -0.00016819 
1247 42 1 14.026 1679.31 416.876 28.2241 -0.0037108 0.00197338 0.00899741 
539 18 3 15.034 1447.57 410.919 28.2639 0.00527683 -0.00906916 0.00614746 
538 18 4 13.018 1448.46 412.221 28.2174 -0.00326859 0.00484584 0.003734 
1259 42 3 15.034 1680.08 416.36 38.8982 -0.00627199 0.00551057 -0.00173277 
526 18 1 14.026 1446.94 412.578 36.0625 0.000761772 -0.00264706 0.00433832 
378 13 4 13.018 1539.49 409.689 -7.53155 -0.00705111 -0.00321745 -0.00319712 
1037 35 1 14.026 593.762 367.989 39.0199 0.000892293 0.00771423 0.00200365 
525 18 1 14.026 1446.21 411.428 35.3686 -0.00608528 0.000142939 0.00619002 
1668 56 4 13.018 495.576 371.977 -12.9963 -0.00102183 -0.0011909 0.00153715 
1260 42 2 15.034 1681.73 415.959 36.953 -0.000738645 0.00814636 0.00449034 
1257 42 1 14.026 1679.23 416.515 36.4391 0.00582036 -0.00362528 0.00659055 
524 18 1 14.026 1444.82 411.31 36.0074 0.00646092 -0.00300857 0.00386068 
1256 42 1 14.026 1679.47 416.967 35.0331 -0.0025742 0.0047401 -0.00334892 
523 18 3 15.034 1442.49 410.054 35.8259 -0.00116194 -0.00114048 -0.00481635 
376 13 1 14.026 1537.64 411.5 -7.75032 -0.00353195 0.00159337 0.00424504 
1258 42 4 13.018 1680.42 416.65 37.4124 0.00258615 -0.00804987 0.00215502 
527 18 1 14.026 1448.32 412.834 35.4886 0.00122451 -0.00147081 -0.00357658 
522 18 4 13.018 1443.86 410.375 35.2018 -0.00345514 -0.00134544 0.000981657 
1671 56 1 14.026 496.895 371.78 -10.8735 0.00395656 -0.000659399 -0.000315942 
1672 56 1 14.026 498.281 371.808 -10.1974 0.00534663 0.00356236 0.00320466 
1670 56 1 14.026 496.995 371.965 -12.4222 0.000195096 0.00678972 -0.00570672 
1038 35 4 13.018 592.907 368.845 40.0047 -0.00467805 -0.000362589 0.000599472 
489 17 1 14.026 1258.03 408.406 43.3908 -0.00433012 0.00136458 0.00223436 
138 5 4 13.018 1346.28 410.239 45.4331 -0.00549808 -0.00676857 0.00574003 
1045 35 1 14.026 589.596 369.85 44.3412 -0.00537084 -0.00341176 0.00630714 
133 5 3 15.034 1352.2 414.292 45.0038 -0.000341436 0.00142535 -0.000836332 
1046 35 1 14.026 588.7 370.909 45.0257 -0.00320018 0.00842201 0.00393996 
136 5 1 14.026 1348.42 411.458 44.7099 0.00870131 -0.00117655 -0.00573459 
1039 35 3 15.034 593.781 369.348 41.162 0.000437791 0.00678088 -0.00156856 
1043 35 4 13.018 588.793 368.993 43.3212 0.00178551 0.00499266 -0.00630405 
132 5 4 13.018 1352.03 412.887 44.4131 -0.000701708 -0.00603257 7.82043e-05 
135 5 1 14.026 1349.75 412.023 45.263 -0.00302259 -0.00106712 0.00143728 
2629 88 3 15.034 1876.23 418.372 44.989 -0.00130578 -0.00378517 -0.0031674 
1044 35 3 15.034 587.883 368.017 44.0063 3.98041e-06 0.00211003 0.000517451 
380 13 1 14.026 1539.64 408.182 -7.27811 0.00136138 -0.00081159 -0.00957451 
1041 35 1 14.026 590.77 369.056 41.5674 -0.00148982 -0.00520088 0.00156468 
1040 35 1 14.026 591.559 368.23 40.4649 -0.00112351 -0.00319521 0.00690498 
131 5 1 14.026 1352.83 412.794 43.1754 -0.00351082 -0.00141647 0.00195074 
134 5 1 14.026 1350.61 412.536 44.0984 0.000488525 0.00219511 -4.53394e-05 
1042 35 1 14.026 589.716 368.259 42.3113 0.00298075 -0.00571677 0.0014772 
377 13 1 14.026 1538.09 410.129 -7.18904 -0.00758107 -1.18509e-05 0.00884351 
379 13 3 15.034 1540.67 410.531 -6.99388 0.000762331 0.00142377 -0.00200854 
2628 88 4 13.018 1875.81 419.871 45.137 0.000739271 0.000779082 -0.000884396 
137 5 1 14.026 1347.62 410.776 45.8155 0.0069038 -0.0077828 -0.00301534 
488 17 3 15.034 1256.19 408.626 45.2338 -0.00547358 0.00110981 -0.00329796 
2626 88 1 14.026 1874.21 419.974 43.1325 0.00651803 0.00101096 0.00155471 
2702 91 4 13.018 1730.25 412.186 3.65637 0.00653652 -0.00235781 -0.00204674 
2704 91 1 14.026 1729.73 410.737 3.6516 -0.00824757 -0.00575682 -0.000527088 
1047 35 1 14.026 589.33 371.859 45.9666 0.00200445 0.00359196 -0.00735838 
2705 91 1 14.026 1729.36 410.289 2.20395 0.00709788 -0.00597912 0.00357279 
2703 91 3 15.034 1731.51 412.255 2.74774 -0.00264985 -0.00137571 0.00234834 
2708 91 3 15.034 1726.48 409.192 2.9684 0.00708704 0.00360676 -0.000503137 
2707 91 4 13.018 1727.8 408.429 3.22778 -0.00746018 0.00319712 -0.000835695 
2706 91 1 14.026 1728.91 408.82 2.15226 -0.00791403 -0.000138017 0.000632327 
3271 110 2 15.034 829.654 372.476 49.863 -0.000309889 0.00294711 0.0033103 
1076 36 1 14.026 1730.32 417.655 9.60296 0.00507967 -0.00719795 0.00404282 
1074 36 3 15.034 1730.23 417.755 5.58059 0.00324104 -0.00571439 0.0028908 
1073 36 4 13.018 1729.73 418.098 7.04379 0.00212542 0.002876 -0.000330533 
2354 79 1 14.026 1828.69 413.673 8.27332 0.00763737 -0.000296496 -0.000521966 
1070 36 1 14.026 1726.37 416.091 6.73028 0.00259094 0.00488625 0.0016525 
1283 43 4 13.018 2683.64 456.285 52.3133 0.000503394 0.00697558 0.00133639 
2701 91 2 15.034 1730.4 412.845 5.02638 -0.00549355 0.00777104 0.00224455 
1072 36 1 14.026 1728.26 417.785 7.28718 0.000363595 -0.0029341 0.00425829 
1284 43 3 15.034 2683.09 456.935 53.5981 0.00329864 0.00217914 0.000991643 
329 11 3 15.034 1348.01 411.847 8.8809 -0.00159555 -0.00245222 0.00264138 
1075 36 1 14.026 1730.69 417.541 8.10059 0.00169546 -0.00197376 0.00159277 
1071 36 1 14.026 1727.86 416.373 6.76086 -0.001647 -0.00387152 0.0013488 
1077 36 1 14.026 1729.49 416.533 10.2554 -0.00228644 0.00282799 0.00223142 
2358 79 4 13.018 1828.39 413.674 13.3931 -0.00429226 -0.010091 0.00387038 
2719 91 3 15.034 1730.02 409.155 13.9191 -0.000393128 -0.0026877 0.00376626 
2361 79 1 14.026 1826.43 412.985 14.9455 -0.000138497 -0.00917371 -0.00402811 
1078 36 4 13.018 1728.97 416.873 11.6248 -0.00126586 -0.00126225 -0.00187183 
809 27 3 15.034 1401.16 419.796 13.7851 -0.000514053 0.0041228 -0.00287638 
1080 36 2 15.034 1730.1 417.416 12.5259 0.00340357 0.0019804 0.00382663 
2356 79 1 14.026 1828.25 413.818 10.7793 0.00225166 0.00169292 -0.0023159 
1079 36 3 15.034 1727.71 417.742 11.5696 -0.00366279 -0.00648289 0.00296259 
423 15 3 15.034 1731.09 416.686 16.0909 0.00387323 -0.00383918 0.00287762 
2362 79 1 14.026 1824.91 412.908 15.2017 -0.000909326 -0.00235908 0.00173689 
2360 79 1 14.026 1826.9 413.54 13.5198 -0.00572142 -0.00334561 0.00350406 
1194 40 3 15.034 1726.33 415.643 14.9346 0.00251972 0.0030559 -0.00547294 
330 11 2 15.034 1349.24 412.835 10.8 -0.00447957 -0.00108906 0.0018813 
327 11 1 14.026 1347.34 411.038 11.315 -0.00313542 0.00169617 -0.00638423 
2357 79 1 14.026 1828.76 414.433 12.1549 -0.00929412 -0.00320728 0.0047733 
328 11 4 13.018 1347.93 412.191 10.4039 0.0046724 0.00489304 0.000738188 
2721 91 1 14.026 1732.92 408.161 13.9695 0.00293049 0.0045165 0.00120062 
435 15 1 14.026 1726.91 421.139 18.3472 -0.00303892 0.00524712 0.00371095 
3529 118 3 15.034 1921.29 428.173 18.9323 0.00297473 0.000961704 -0.00224983 
430 15 1 14.026 1730.37 422.822 20.284 0.000216255 -0.000450054 0.00500112 
3527 118 1 14.026 1921.1 426.537 20.9482 -0.0041207 -0.000302464 0.0016904 
428 15 3 15.034 1733.33 421.317 19.8089 0.00363282 0.00832373 0.00174842 
434 15 1 14.026 1727.53 422.314 19.1443 -0.00289567 -0.00149144 0.000375186 
3339 112 1 14.026 2011.57 425.363 16.3368 -0.000708297 -0.00288252 0.000134795 
3531 118 1 14.026 1918.2 426.837 20.7807 -0.00125298 -0.00568618 0.0119958 
429 15 1 14.026 1730.8 421.368 20.584 0.00236842 -0.00985871 0.00477595 
3341 112 1 14.026 2014.05 424.803 16.7145 0.00465741 0.00296467 0.00114459 
432 15 4 13.018 1728.04 422.064 20.5858 0.00758969 -0.00127626 0.00621414 
3530 118 1 14.026 1919.05 427.674 19.7397 -0.00347299 0.00701371 0.00422803 
431 15 1 14.026 1729.09 423.112 20.9999 -0.00415525 -0.00425125 0.000240924 
3532 118 1 14.026 1916.69 427.004 20.6797 -0.00321071 0.00199996 -0.00524512 
3528 118 4 13.018 1920.54 427.75 20.2056 0.00517752 0.00669529 0.00274168 
427 15 4 13.018 1731.86 420.809 19.6187 0.000273211 0.00361778 0.00435277 
3526 118 1 14.026 1922.33 427.007 21.6911 -0.00452652 -0.00566223 -0.00350546 
433 15 3 15.034 1726.86 421.743 21.537 0.00289194 0.00137828 0.00129627 
3344 112 1 14.026 2016.61 424.213 16.9399 0.00174889 -0.00248897 -0.000727193 
3343 112 3 15.034 2014.94 422.418 16.234 -0.00764697 -0.00381713 -0.00371917 
3342 112 4 13.018 2015.26 423.906 16.3062 -0.00475282 -0.00290613 0.000396738 
2948 99 3 15.034 1965.77 420.791 26.8413 0.00310827 -0.00789948 0.00351495 
2942 99 4 13.018 1967.48 425.762 26.0709 -0.0092393 -0.00232606 -0.00492277 
179 6 3 15.034 871.844 382.39 25.2817 -0.0027658 0.00190491 0.00539061 
2947 99 4 13.018 1965.2 421.211 25.4811 -0.0050214 0.00546203 -0.000789406 
1658 56 3 15.034 498.027 372.845 -23.9684 -0.00528238 0.000733421 -0.000125628 
2943 99 3 15.034 1968.2 426.904 25.3508 -0.00466188 0.000419682 -0.00316025 
2945 99 1 14.026 1966.56 423.365 25.7363 0.000365816 0.00198778 0.00152925 
2949 99 1 14.026 1963.8 421.78 25.4171 -0.00103975 0.00594033 -0.0018561 
1660 56 1 14.026 497.074 372.618 -21.0396 -0.00331059 -0.0054783 0.00232623 
2946 99 1 14.026 1966.19 422.168 24.8592 -0.00170171 -0.00849419 -0.00244087 
2944 99 1 14.026 1967.45 424.483 25.183 -0.00497427 -0.00249063 0.00430789 
3534 118 3 15.034 1916.5 426.875 23.1671 -0.0038324 -0.0015822 -0.000992777 
2941 99 2 15.034 1967.71 425.637 27.5559 -0.00100726 0.00205818 -0.00665464 
3525 118 1 14.026 1923.15 425.817 22.2084 0.000356311 4.17905e-06 0.00086096 
1663 56 3 15.034 498.174 374.872 -19.6696 0.00233678 -0.00284178 -0.00445695 
1661 56 1 14.026 497.613 372.527 -19.5834 -0.00591531 0.00502434 -0.00428781 
3667 123 4 13.018 2066.29 425.297 31.9068 0.00124186 0.00598949 -1.1103e-05 
1662 56 4 13.018 497.379 373.864 -18.8762 -0.00171157 -0.00504727 0.00404887 
990 33 2 15.034 825.014 375.984 32.6171 0.00241773 0.00208233 -0.00543668 
987 33 1 14.026 823.993 376.351 30.3544 0.00579341 -0.000618612 0.000756451 
2485 83 1 14.026 972.547 383.744 30.0159 0.00148081 -0.00172332 0.00239313 
988 33 4 13.018 825.31 376.392 31.1733 0.00224289 0.00256555 -0.00308852 
2486 83 1 14.026 971.63 383.22 31.1451 -0.00096136 0.00603021 -0.00133944 
3668 123 3 15.034 2065.64 426.111 30.7601 0.000315044 0.0046789 0.000415914 
986 33 1 14.026 824.145 376.702 28.9095 5.45648e-05 0.000878047 0.00481886 
989 33 3 15.034 826.411 375.539 30.5721 -0.00317497 0.00213515 -0.00209112 
3669 123 1 14.026 2065.25 424.464 32.6477 0.00348254 0.00504819 0.00315149 
2488 83 4 13.018 969.993 381.398 31.6185 0.00331006 -0.00765111 0.0081266 
1664 56 1 14.026 497.366 373.81 -17.3145 0.00278673 0.00363848 0.00248458 
2490 83 2 15.034 970.607 381.458 33.0927 0.00726966 -0.000250688 -0.000474198 
2489 83 3 15.034 969.378 379.988 31.2226 0.00426634 -0.00023244 0.00434656 
2487 83 1 14.026 971.136 381.842 30.7388 -0.00241064 -0.00341377 -0.00258377 
2968 99 4 13.018 1963.85 430.611 31.7625 -0.000372995 -0.000438718 0.00496436 
3670 123 1 14.026 2064.31 425.266 33.4851 0.00459928 -0.00422132 0.000803187 
2970 99 2 15.034 1964.72 431.833 32.2189 0.0017849 0.00568767 -0.00454121 
1665 56 1 14.026 496.455 372.754 -16.6826 0.00420667 0.00163673 0.00509921 
1666 56 1 14.026 496.177 373.054 -15.1495 -0.00216334 -0.000761131 -0.00639762 
3675 123 1 14.026 2060.73 425.271 37.1018 0.00282399 -0.000108303 -0.00874286 
1674 56 3 15.034 497.964 374.121 -9.14978 0.0027048 0.000235782 0.00922551 
3712 124 1 14.026 2111.93 431.465 36.0871 0.00297275 0.00266452 0.00605183 
3707 124 1 14.026 2107.03 431.697 38.0046 -0.00404992 0.00425819 0.000294553 
3674 123 1 14.026 2061.63 424.385 36.2721 0.000878757 -0.0153178 0.00156389 
3677 123 1 14.026 2058.94 427.153 36.6818 0.000321086 -0.00430359 -0.0082046 
3671 123 1 14.026 2063.38 424.349 34.3532 0.00396761 0.00201002 -0.00388467 
3710 124 1 14.026 2109.44 431.217 37.0231 -0.00153679 0.00170264 -0.000324188 
3676 123 1 14.026 2059.91 426.123 36.0596 -0.00300791 0.00427609 0.00640103 
3672 123 4 13.018 2062.76 425.111 35.5396 0.00497948 0.000860119 0.000488043 
2620 88 1 14.026 1869.94 421.156 38.2249 0.00226313 -0.00611907 -0.00254847 
3673 123 3 15.034 2063.77 425.796 36.4397 0.000980851 0.000537 0.000688829 
1673 56 4 13.018 498.882 373.216 -9.98899 0.00617439 0.00177226 -0.0017184 
1669 56 3 15.034 494.833 373.163 -12.3991 -0.00187331 0.000751709 -0.00715044 
2621 88 1 14.026 1870.69 420.547 39.4656 -0.00198722 0.0020138 -0.00392023 
3714 124 3 15.034 2113.9 431.478 34.4473 0.00234268 0.0010676 0.0052997 
2622 88 4 13.018 1872.08 421.036 39.9633 -0.00374849 0.00288899 -0.00488714 
2624 88 1 14.026 1872.55 420.35 41.3021 -0.000717607 -0.00306551 -0.00412445 
2248 75 4 13.018 2012.56 428.719 -4.20075 0.00194613 -0.000982061 -0.00125368 
2249 75 3 15.034 2011.72 428.537 -2.91729 0.000160188 -0.00124388 0.00401753 
1772 60 4 13.018 1113.23 383.864 45.3019 -0.00763316 0.00116019 -0.000729642 
2247 75 1 14.026 2013.52 427.544 -4.51777 5.34052e-06 0.000968333 -0.00117143 
1776 60 1 14.026 1113.94 383.547 41.383 0.00428867 0.00517738 -0.000967769 
2243 75 4 13.018 2017.17 426.466 -3.24903 0.000918943 -0.0031552 0.0035944 
2250 75 2 15.034 2011.61 429.172 -5.36953 0.00671685 0.00471408 0.00305011 
2245 75 1 14.026 2015.84 426.534 -3.99796 -0.00119102 -0.00324561 -0.00661183 
2246 75 1 14.026 2014.75 427.552 -3.5476 -0.00200143 -0.000932076 0.00586388 
2625 88 1 14.026 1873.86 420.848 41.8647 -0.00322459 0.000937973 -0.00705798 