LAMMPS (10 Feb 2015)
Read molecule SQL:
  30 atoms with 4 types
  29 bonds with 1 types
  34 angles with 1 types
  31 dihedrals with 2 types
  6 impropers with 1 types
Reading restart file ...
  restart file = 10 Feb 2015, LAMMPS = 10 Feb 2015
  triclinic box = (112.339 112.339 112.339) to (157.661 157.661 157.661) with tilt (0 0 0)
  3 by 4 by 4 MPI processor grid
  3750 atoms
  3625 bonds
  4250 angles
  3875 dihedrals
  750 impropers
250 atoms in group endatoms
60 atoms in group samplechains
WARNING: New thermo_style command, previous thermo_modify settings will be lost (../output.cpp:665)
Neighbor list info ...
  1 neighbor list requests
  update every 1 steps, delay 0 steps, check yes
  master list distance cutoff = 10.3
Setting up run ...
Memory usage per processor = 2.18354 Mbytes
Step Time Temp Volume Press Density PotEng TotEng Pxx Pyy Pzz Pxy Pyz Pxz myT 
       0            0    293.35911    93093.952    5225.8088     0.942689   -1347.9981    1930.3066    4447.4747    5632.8427    5597.1089    310.66198    124.99316    693.58658    293.35911 
    1000         1000    294.30441    93093.952    4334.2709     0.942689    -1451.994    1836.8746    4628.2905    3763.6403    4610.8818   -2.5022458   -666.76286    369.38225    294.30441 
    2000         2000     295.8803    93093.952    3828.8515     0.942689   -1353.3188    1953.1605    4131.8887    3845.7386     3508.927   -476.31614    416.01548    449.45128     295.8803 
    3000         3000    287.99401    93093.952    4228.6323     0.942689   -1401.6342    1816.7153    3306.3474    5218.2243    4161.3253   -482.03816   -542.99374    87.804083    287.99401 
    4000         4000    296.95189    93093.952    3969.6125     0.942689   -1401.9288    1916.5254    2377.8429    4478.5102    5052.4843   -297.26775   -281.56823    582.63138    296.95189 
    5000         5000    296.43854    93093.952    3288.4682     0.942689   -1443.4714    1869.2461      3612.76    3134.9667    3117.6778    762.12636    1064.3285    449.44112    296.43854 
    6000         6000    291.06378    93093.952    3613.4647     0.942689   -1357.9915    1894.6629    3086.3325    4444.9019    3309.1597   -613.29774    835.77453   -350.78965    291.06378 
    7000         7000    294.52233    93093.952    3788.3619     0.942689   -1324.5697    1966.7341    4696.1707    3464.0596    3204.8552   -1243.3845    387.12024   -242.82419    294.52233 
    8000         8000    290.84489    93093.952    4056.6535     0.942689   -1472.6868    1777.5214    3665.9115    4714.4223    3789.6265   -56.586226   -232.70108    576.46759    290.84489 
    9000         9000    297.67361    93093.952    4027.6787     0.942689   -1343.6224    1982.8971    3868.2073    4139.3882    4075.4406   -72.066022   -66.258892   -176.29537    297.67361 
   10000        10000    292.32725    93093.952    3688.8483     0.942689   -1480.6986    1786.0751    4544.9382    3496.5531    3025.0537  -0.47795424   -216.82188   -529.85703    292.32725 
   11000        11000    299.43121    93093.952    4647.5843     0.942689   -1382.9087    1963.2521    4565.9011    4576.5103    4800.3415    363.52217    349.59354   -564.67072    299.43121 
   12000        12000    294.96828    93093.952    3368.3245     0.942689   -1405.9865    1890.3009    2517.4147    4487.1844    3100.3744    284.12184   -295.74906   -551.46513    294.96828 
   13000        13000    284.46241    93093.952    3413.3587     0.942689   -1420.4133    1758.4703    3016.9534    4534.6265    2688.4961   -25.424561    850.91833   -58.182285    284.46241 
   14000        14000    301.51727    93093.952    3508.3247     0.942689    -1322.438    2047.0347    2320.8844     4052.218    4151.8718    455.20588   -225.93812    61.894634    301.51727 
   15000        15000    286.43795    93093.952    3693.0791     0.942689   -1488.3262    1712.6341    4281.7437     4024.809    2772.6845    114.48587   -265.42189     116.5664    286.43795 
   16000        16000    298.84686    93093.952    4717.5301     0.942689   -1351.8216    1987.8091    4551.6114    4915.3868    4685.5919   -575.05671    234.11432   -572.99681    298.84686 
   17000        17000    287.17721    93093.952    3806.7081     0.942689   -1327.8324    1881.3893     3311.346    3544.8795    4563.8987   -247.79947    371.15159   -287.92257    287.17721 
   18000        18000    296.52084    93093.952    3550.8076     0.942689   -1397.6423    1915.9949     3123.488     4374.616    3154.3187   -4.1625292   -563.12123   -520.08408    296.52084 
   19000        19000    302.77472    93093.952     3979.429     0.942689    -1483.347    1900.1777    3975.4274    3506.4488    4456.4106   -1009.2738    643.92045   -145.50422    302.77472 
   20000        20000    294.53922    93093.952    3856.7878     0.942689   -1373.1579    1918.3347    3743.6438    3345.1183    4481.6015   -468.57354    441.72242    964.49194    294.53922 
   21000        21000    290.82026    93093.952    3735.6223     0.942689   -1307.6489    1942.2841    2824.8927    4530.5173    3851.4567   -570.34331   -510.34889   -164.43544    290.82026 
   22000        22000    292.76403    93093.952    4236.9444     0.942689   -1404.2558    1867.3989    3849.4603    4129.0392    4732.3336   -387.85619   -809.82629   -543.22262    292.76403 
   23000        23000    299.39521    93093.952    2969.9945     0.942689   -1389.1438    1956.6147    3070.5787    2964.7344    2874.6704   -682.77479    781.91396     487.5561    299.39521 
   24000        24000    301.82111    93093.952    3340.3002     0.942689   -1419.1022    1953.7659    2730.0107    3533.9451     3756.945    -129.9974   -814.35249    188.07585    301.82111 
   25000        25000    294.11878    93093.952    3980.4919     0.942689   -1389.0303    1897.7638     4566.316    4036.0166    3339.1429   -213.55358   -804.83498    201.70403    294.11878 
   26000        26000    293.80111    93093.952    3880.9742     0.942689   -1388.7921    1894.4521    3916.1052    4072.2251    3654.5923   -136.92381   -302.76948   -571.73227    293.80111 
   27000        27000    287.07988    93093.952    3228.5143     0.942689   -1362.2353    1845.8986    3296.3912    3343.8854    3045.2663   -73.171104    158.35614    8.0164559    287.07988 
   28000        28000    291.89782    93093.952    4044.3982     0.942689   -1304.5558     1957.419    3789.4709    4582.7642    3760.9596     295.8762   -203.29463    489.67899    291.89782 
   29000        29000    290.61808    93093.952     3466.032     0.942689   -1302.3561    1945.3175    3242.6037    3063.3725    4092.1199     -458.809   -598.19051   -54.034826    290.61808 
   30000        30000    297.83237    93093.952    4097.9879     0.942689   -1313.3748    2014.9189    3519.0465    4543.6539    4231.2634   -920.42506   -721.10355    424.00042    297.83237 
   31000        31000    282.43022    93093.952    4425.4733     0.942689   -1442.4134    1713.7604    4589.7526    4830.3372    3856.3301   -317.58493      -281.71    781.07317    282.43022 
   32000        32000    303.22365    93093.952    4412.9797     0.942689   -1334.2506    2054.2909    3048.6761    5757.5899     4432.673   -1467.3118    339.00305   -200.12519    303.22365 
   33000        33000    292.01587    93093.952    4296.6954     0.942689   -1379.8895    1883.4045    4856.6276    3270.3354    4763.1232   -662.29069    612.09985   -156.79606    292.01587 
   34000        34000    293.37563    93093.952    4427.3398     0.942689   -1358.1984    1920.2909    3995.3101    4979.0638    4307.6454   -1219.9127   -354.05796    -1018.566    293.37563 
   35000        35000    295.08359    93093.952    3771.2998     0.942689   -1341.0248    1956.5511    4417.7689    3468.0004      3428.13   -546.17755    785.29922     657.6888    295.08359 
   36000        36000    293.72851    93093.952    3251.9604     0.942689   -1375.0919    1907.3409    3478.9859    3551.8979    2724.9975    -1257.328   -347.72553    122.94336    293.72851 
   37000        37000    297.41352    93093.952    4499.1015     0.942689    -1393.321    1930.2919     3735.166    5537.8715    4224.2669   -1043.8908     263.0111   -857.81704    297.41352 
   38000        38000    288.26536    93093.952    4208.9079     0.942689    -1352.839    1868.5428    4935.4568    3722.2675    3968.9993   -335.41644    67.609663    737.45401    288.26536 
   39000        39000    293.97934    93093.952    3877.0745     0.942689   -1331.5238    1953.7121    3592.1073    4080.5269    3958.5893   -581.36171    838.66928    416.38488    293.97934 
   40000        40000    291.62523    93093.952    4096.3258     0.942689   -1317.8387    1941.0898    3728.2594     4899.008      3661.71     116.1757   -4.3193998   -336.91075    291.62523 
   41000        41000    293.65942    93093.952    4188.0367     0.942689   -1309.6855    1971.9752    3941.4545    4864.7121    3757.9436   -1001.7953   -85.222944    -204.0289    293.65942 
   42000        42000    292.11095    93093.952    4731.2316     0.942689   -1363.2589    1901.0975    4642.4461    4733.5377    4817.7109   -379.02429     908.8235   -315.30761    292.11095 
   43000        43000    295.11917    93093.952    4369.7651     0.942689   -1324.0374    1973.9361    4647.2564    4652.4882    3809.5505   -431.46171    685.33715     27.30791    295.11917 
   44000        44000    301.28883    93093.952    3966.8799     0.942689   -1299.9474    2066.9724    4002.7255    4462.5151     3435.399   -1349.6403    474.69691    483.71964    301.28883 
   45000        45000    288.30466    93093.952    4111.8561     0.942689    -1312.391      1909.43    3873.7709    4027.8786    4433.9189   -1062.3068    321.66232     -737.148    288.30466 
   46000        46000    293.00588    93093.952      4261.53     0.942689   -1331.8021    1942.5553     4427.384    4516.2127    3840.9932   -645.33192    126.05587    961.12732    293.00588 
   47000        47000    291.50193    93093.952    3197.0653     0.942689   -1285.6212    1971.9294    2337.2719    3628.2846    3625.6393   -1434.9757    410.84983    791.93611    291.50193 
   48000        48000    295.73758    93093.952     3993.792     0.942689   -1330.5907    1974.2936    4060.1358    4520.7013    3400.5387   -582.03189    140.60656   -76.882766    295.73758 
   49000        49000    294.98694    93093.952    4282.2536     0.942689   -1255.7654    2040.7304    4448.7353    5180.7805     3217.245   -877.61556    152.43688    -1030.287    294.98694 
   50000        50000    296.06796    93093.952    4638.7072     0.942689   -1364.7705    1943.8058    4080.4075    5309.9716    4525.7427   -803.41985    240.77142    62.500715    296.06796 
   51000        51000     292.0736    93093.952    5027.2059     0.942689   -1315.1399    1948.7992    5008.7716    5017.2389    5055.6071   -1753.2971   -563.77709   -710.02468     292.0736 
   52000        52000    296.68749    93093.952     3666.752     0.942689   -1362.3806     1953.119    3328.1217    4223.4512    3448.6832   -1777.6291    24.772171    272.18133    296.68749 
   53000        53000    290.67412    93093.952    4436.9976     0.942689   -1338.4524    1909.8474    4179.1566    5449.0917    3682.7445   -1267.6109     27.10777   -316.44719    290.67412 
   54000        54000    292.06558    93093.952    4146.9409     0.942689   -1288.1369    1975.7125    4157.2436    3969.9629    4313.6161   -1170.7492    680.76414    183.29747    292.06558 
   55000        55000     292.0936    93093.952    5154.5258     0.942689   -1316.9649    1947.1977    6173.9674    4859.6818    4429.9283   -805.82826   -223.21035    41.550767     292.0936 
   56000        56000    288.79501    93093.952    3849.0388     0.942689   -1259.7002    1967.6004    3456.4382    4826.4408    3264.2373   -619.38607    624.04198     10.36641    288.79501 
   57000        57000    288.69978    93093.952    3251.6293     0.942689   -1267.7021    1958.5344    2980.4026    3998.1164    2776.3689   -487.05048    843.94162     -1271.36    288.69978 
   58000        58000    300.90689    93093.952    3881.6843     0.942689   -1366.6132    1996.0384     3805.624    4251.3619     3588.067   -1829.8027    379.63707   -23.393329    300.90689 
   59000        59000    291.13459    93093.952    4174.4214     0.942689   -1258.2615    1995.1841     4372.813    4050.9602     4099.491   -1428.1787    286.36887    495.66129    291.13459 
   60000        60000    290.00204    93093.952    4861.7568     0.942689   -1325.6026    1915.1868    5510.2648    4517.7648    4557.2409   -4.6344258   -35.669165    219.70332    290.00204 
   61000        61000    299.86241    93093.952    4504.1955     0.942689   -1253.7566    2097.2229    4992.5958    4633.1023    3886.8886   -195.45736    -335.6415   -148.17747    299.86241 
   62000        62000    282.89729    93093.952    4450.7515     0.942689   -1256.5959    1904.7974    3175.6378    5549.7145    4626.9022   -705.70775   -472.89871    -138.2939    282.89729 
   63000        63000    294.05353    93093.952    4009.8033     0.942689   -1309.9437    1976.1212    3618.8469     4194.008    4216.5551   -1099.9892   -692.06804    286.26795    294.05353 
   64000        64000    295.58588    93093.952    3243.6723     0.942689   -1322.0656    1981.1234    3553.7173     2914.313    3262.9866   -843.97254    5.9461068    221.06619    295.58588 
   65000        65000    291.52421    93093.952    5478.5048     0.942689   -1257.0661    2000.7335    5829.4424    6047.2729    4558.7992   -1254.5796    154.95821   -1085.7775    291.52421 
   66000        66000    292.06502    93093.952    3862.8448     0.942689   -1289.4297    1974.4135     3847.524    4770.4216    2970.5886   -991.21515   -552.48431    471.41878    292.06502 
   67000        67000    288.62099    93093.952    4646.6048     0.942689   -1256.5384    1968.8175    3842.6666    5580.1499    4516.9979   -1257.5097    502.77576    154.93282    288.62099 
   68000        68000    287.20027    93093.952    4298.1683     0.942689   -1246.2849    1963.1944    4201.1903    4031.7654    4661.5491   -1265.6267   -650.99149    465.09313    287.20027 
   69000        69000    298.36348    93093.952    4174.8465     0.942689   -1310.1777    2024.0512    4086.3169    4758.8544     3679.368   -1211.5591    197.94688   -16.917889    298.36348 
   70000        70000     298.1655    93093.952    3919.9707     0.942689   -1295.3799    2036.6365    3044.5328    4699.9387    4015.4407   -953.12081   -272.31644    517.48494     298.1655 
   71000        71000    291.16843    93093.952    4803.4259     0.942689   -1206.2565    2047.5672    5398.2418    4735.7973    4276.2387   -876.24084   -637.09431   -1172.4866    291.16843 
   72000        72000    290.29607    93093.952    5089.6064     0.942689   -1283.1174    1960.9577     5248.466    5320.7477    4699.6056   -1313.0929    1182.6809    -823.6105    290.29607 
   73000        73000    295.07367    93093.952    4418.9102     0.942689   -1223.4013    2074.0638    3872.3038    4822.3663    4562.0605   -1039.6139    557.57045   -1251.1086    295.07367 
   74000        74000     288.6438    93093.952    4499.0176     0.942689   -1196.1625    2029.4484    4380.4134    5332.4089    3784.2306   -1362.0344   -774.09165    875.79549     288.6438 
   75000        75000    294.49523    93093.952    4450.3564     0.942689   -1186.2696    2104.7313    5024.4735    4558.0034    3768.5921   -288.96133    377.17852    184.15997    294.49523 
   76000        76000    297.31572    93093.952    4791.6699     0.942689   -1309.2047    2013.3154    5467.0221    4639.1969    4268.7907   -1811.8265    399.19855    420.23543    297.31572 
   77000        77000    294.90004    93093.952    3880.7615     0.942689   -1289.3301    2006.1947    3871.1362    4005.5183    3765.6299   -1206.2575     649.0665   -308.63514    294.90004 
   78000        78000    294.57372    93093.952    4531.3763     0.942689   -1213.4763    2078.4018    4883.4054    5031.8257    3678.8977   -463.22586   -10.905075    176.41734    294.57372 
   79000        79000     291.8719    93093.952    5082.8852     0.942689   -1235.7239    2025.9612    5468.3923    4802.9945    4977.2688   -410.24096   -328.29992   -134.91208     291.8719 
   80000        80000    293.17315    93093.952     5042.206     0.942689   -1251.6422    2024.5845    4552.9845    6410.4205    4163.2132   -1362.3041    598.46275    219.64741    293.17315 
   81000        81000    288.58313    93093.952    3810.4994     0.942689   -1215.1882    2009.7447    3427.7123     4211.011     3792.775   -1363.8358   -306.37218   -193.10751    288.58313 
   82000        82000    292.83399    93093.952    4675.8535     0.942689   -1226.2805     2046.156    3740.5378    5773.5318    4513.4909   -915.06732    543.25369   -229.06496    292.83399 
   83000        83000    290.74957    93093.952     4567.817     0.942689   -1191.8253    2057.3177    3762.6413    5185.4195    4755.3901   -705.06166    236.99244    135.14719    290.74957 
   84000        84000    295.05584    93093.952    4924.8964     0.942689   -1261.7298     2035.536    4672.2948    5631.9645    4470.4297   -1742.9185    562.40884    178.81665    295.05584 
   85000        85000    295.11762    93093.952    4113.8335     0.942689    -1264.418    2033.5381     3868.839    4193.9869    4278.6747   -674.06366   -204.63494    779.24902    295.11762 
   86000        86000    285.67436    93093.952    4530.0147     0.942689   -1128.5562     2063.871    4918.7646    4366.5191    4304.7604   -969.74161    34.461563    216.03269    285.67436 
   87000        87000    284.93778    93093.952    5194.0177     0.942689   -1286.8877    1897.3082    5247.2424    5245.6251    5089.1855     -696.237   -923.67793   -169.15347    284.93778 
   88000        88000     296.9254    93093.952     4250.869     0.942689   -1188.2724    2129.8858    4584.9217    3870.2205    4297.4648   -273.95274   -762.37343   -349.77761     296.9254 
   89000        89000    289.10293    93093.952     5298.995     0.942689   -1281.3209    1949.4208    5568.4996     5158.828    5169.6575   -568.89928   -291.21499   -12.068419    289.10293 
   90000        90000    294.84267    93093.952    4568.2461     0.942689   -1219.9152    2074.9684    4014.1584    5018.2323    4672.3477   -738.31508    452.57191    352.95417    294.84267 
   91000        91000    288.48744    93093.952    4226.8869     0.942689   -1191.7104    2032.1531    4438.7762    3994.7111    4247.1735    -1562.657   -471.11206    474.03136    288.48744 
   92000        92000    293.53333    93093.952    4592.0817     0.942689   -1213.2327     2067.019    3303.0979     5682.436    4790.7113   -846.22304    967.12881    364.68737    293.53333 
   93000        93000     291.1971    93093.952    4031.4877     0.942689   -1167.7974    2086.3468    4871.5329    3471.7341     3751.196    -1175.649     404.2261   -183.86641     291.1971 
   94000        94000    298.81136    93093.952    4320.6235     0.942689   -1271.7641    2067.4698    3745.9137    4752.6676    4463.2891   -1232.1577    318.02381   -146.05555    298.81136 
   95000        95000    286.45943    93093.952    3287.6323     0.942689   -1250.7246    1950.4758     2664.641    2894.4628    4303.7931   -1350.5851    92.389608   -560.02703    286.45943 
   96000        96000     300.2695    93093.952    4061.5226     0.942689   -1186.4052    2169.1235    3891.2527    4677.2841    3616.0309   -1667.1495    563.42341   -289.55447     300.2695 
   97000        97000    285.33218    93093.952    4594.3226     0.942689   -1213.8258    1974.7776    4999.4821    3732.3546    5051.1311   -729.18163    938.64016   -97.065559    285.33218 
   98000        98000    293.73902    93093.952    4258.4159     0.942689   -1190.7203      2091.83    3365.6461    4388.3405     5021.261   -1484.3263    -16.01911   -902.36559    293.73902 
   99000        99000    292.38731    93093.952    4956.1515     0.942689   -1265.9587    2001.4861    6410.6117    4129.5852    4328.2576   -1249.9613   -104.62397    265.84625    292.38731 
  100000       100000    293.72119    93093.952     3547.314     0.942689   -1183.2535    2099.0976    2170.9336    4644.8322    3826.1761   -1055.8019   -532.60934   -695.15812    293.72119 
  101000       101000     288.3462    93093.952    4004.4753     0.942689   -1107.8344    2114.4508    4069.6934    3743.6519    4200.0804   -997.97691    158.79305    -62.01827     288.3462 
  102000       102000    292.17333    93093.952    4279.3819     0.942689   -1250.5356    2014.5179     4027.298    4582.0706     4228.777   -1611.3639     11.44806    -380.3504    292.17333 
  103000       103000    295.20472    93093.952    5227.9187     0.942689   -1153.6632    2145.2663    4985.2143    5116.3304    5582.2112   -1260.0121    32.095547   -732.02821    295.20472 
  104000       104000     290.6557    93093.952    3752.7282     0.942689   -1162.8278    2085.2662    3106.1009    4253.3515    3898.7321   -1510.6819   -419.76438   -501.88298     290.6557 
  105000       105000     291.9119    93093.952    3910.2193     0.942689   -1212.0264    2050.1057    3817.6041    4122.3441    3790.7097   -1040.3133   -357.85661    59.442295     291.9119 
  106000       106000    301.27404    93093.952     3700.056     0.942689   -1183.2203    2183.5342    3519.2487    4379.0617    3201.8577    -1883.594     85.31745   -600.90555    301.27404 
  107000       107000    285.95876    93093.952    4053.6649     0.942689   -1203.1386    1992.4668    4121.6183    3511.6334    4527.7431   -1410.6969   -326.50117   -506.23555    285.95876 
  108000       108000    296.59057    93093.952    4474.8432     0.942689   -1156.1867    2158.2298    4350.3945    4971.5063    4102.6289   -1565.0149   -140.36607   -696.86319    296.59057 
  109000       109000    294.33662    93093.952    4057.1326     0.942689   -1250.7235     2038.505     3075.142     4377.427    4718.8289   -718.43838    63.596414    142.61586    294.33662 
  110000       110000    291.54633    93093.952    3907.3376     0.942689    -1166.263    2091.7838    3560.0689    3844.8939    4317.0502   -1038.8678    24.808152   -90.875584    291.54633 
  111000       111000    288.64432    93093.952    4109.0365     0.942689   -1193.0595    2032.5573     4610.494    3878.3458    3838.2697   -2518.5649   -300.59087   -344.83447    288.64432 
  112000       112000    294.72937    93093.952    4556.2917     0.942689   -1116.5598    2177.0577    3660.2831    5108.7099    4899.8822   -1624.4848    84.752178    -604.6939    294.72937 
  113000       113000    296.04831    93093.952    5129.9333     0.942689     -1178.89    2129.4667      5148.32     5418.162    4823.3179   -617.05471   -374.38057    321.57145    296.04831 
  114000       114000    295.61502    93093.952    4216.7511     0.942689   -1188.6084    2114.9062     3961.344    4867.3125    3821.5969   -1420.9985     233.7787    760.48883    295.61502 
  115000       115000    295.09046    93093.952    4457.4384     0.942689   -1219.9347    2077.7179    4545.3966    4209.4365     4617.482   -788.56445    111.91725    79.449021    295.09046 
  116000       116000    289.21681    93093.952    4369.7596     0.942689   -1131.7587    2100.2556    4306.4656    4675.6747    4127.1385   -1374.4617   -461.53713   -133.81538    289.21681 
  117000       117000    294.37635    93093.952    4579.4622     0.942689   -1139.7837    2149.8888    4178.4863    4865.9882    4693.9119   -1235.8402   -185.48952   -498.53747    294.37635 
  118000       118000    290.67518    93093.952    4145.4959     0.942689   -1184.7266    2063.5851    3516.0117    4749.2538    4171.2223   -784.48245     271.1606    -170.2579    290.67518 
  119000       119000      294.252    93093.952    4514.4597     0.942689   -1097.8312    2190.4517    4198.5292    5349.4601    3995.3898   -913.67826    310.97008    192.83032      294.252 
  120000       120000    291.12084    93093.952    4578.9304     0.942689   -1174.1295    2079.1624    4460.9465     5090.304    4185.5406   -1305.2653    527.64123    204.69815    291.12084 
  121000       121000    289.50113    93093.952    3921.9739     0.942689   -1199.8866     2035.305    3359.1769    3974.4327     4432.312   -1018.4442    373.26493   -474.34942    289.50113 
  122000       122000    296.58208    93093.952    5200.1466     0.942689   -1133.2657    2181.0559    5524.4797    4714.1132    5361.8469     -1404.68   -451.63411   -37.737909    296.58208 
  123000       123000    294.92464    93093.952    4401.3602     0.942689   -1146.0723    2149.7273    4033.8455    4757.2714    4412.9637   -1161.7457    292.98167   -111.26195    294.92464 
  124000       124000    293.40064    93093.952    4442.6001     0.942689   -1187.5761    2091.1927    3873.2817    4456.1435    4998.3751   -1181.3617    166.65344   -245.02044    293.40064 
  125000       125000    290.51983    93093.952    4643.6289     0.942689   -1161.3173    2085.2583    4138.1002    5427.9143    4364.8723   -1134.3008    139.91531    252.80133    290.51983 
  126000       126000    300.54462    93093.952    4314.3019     0.942689    -1145.035    2213.5682    3464.3671    5844.3328    3634.2057   -542.56213    165.10763    591.35118    300.54462 
  127000       127000    287.45143    93093.952     5379.125     0.942689   -1137.3066    2074.9795    5822.3358      5630.59    4684.4492   -1183.9281   -238.86327    1086.7983    287.45143 
  128000       128000    289.49938    93093.952    4274.7028     0.942689   -1152.8829    2082.2891    3248.9667    4462.9149    5112.2267   -1030.8129    -109.2867    1201.2314    289.49938 
  129000       129000    294.43441    93093.952    4789.8705     0.942689    -1172.574    2117.7472    4573.2838    4909.9428     4886.385   -1270.1927    103.26339   -561.17002    294.43441 
  130000       130000    291.65991    93093.952    4574.7702     0.942689   -1060.7775    2198.5386    4685.8904    4341.3365    4697.0839   -850.07858   -191.37447   -301.47875    291.65991 
  131000       131000    294.36392    93093.952    4100.8635     0.942689   -1200.6315    2088.9021    4051.8364    4725.3427    3525.4113   -1870.6559   -346.87884    25.625888    294.36392 
  132000       132000    293.70881    93093.952      4615.98     0.942689   -1118.8984    2163.3142    4279.2737    5023.1571    4545.5092   -994.97689   -745.21671   -204.28551    293.70881 
  133000       133000    299.67828    93093.952    4986.1709     0.942689   -1172.3113    2176.6105    4712.9928    5568.5491    4676.9709   -1053.7944    16.590291   -162.39586    299.67828 
  134000       134000    290.73564    93093.952    3683.1917     0.942689   -1151.7058    2097.2815    3405.2109    4028.5445    3615.8198      -1473.6    99.853886    542.30029    290.73564 
  135000       135000    294.79899    93093.952    4110.4392     0.942689   -1086.4284     2207.967    4345.2834    4120.9731    3865.0612   -1158.9725    278.49172   -509.65639    294.79899 
  136000       136000     284.3053    93093.952    4708.0756     0.942689   -1183.9611    1993.1668    4591.2684    4952.8083    4580.1503   -1131.7904    61.667774    13.026662     284.3053 
  137000       137000    297.22555    93093.952    5377.8288     0.942689   -1113.9648    2207.5477    5999.2878    5737.9014    4396.2971   -1564.7596   -286.55783   -124.96978    297.22555 
  138000       138000    294.58519    93093.952    4238.0251     0.942689   -1202.8114    2089.1949    4130.8261    3168.6439    5414.6054   -509.67608   -54.721341    14.697835    294.58519 
  139000       139000    293.66253    93093.952    4579.0374     0.942689   -1116.0894    2165.6061    4463.5518     4948.527    4325.0335   -1132.1382    242.61956    -439.6039    293.66253 
  140000       140000    290.75224    93093.952    4569.0231     0.942689   -1115.7482    2133.4246    4873.6265    3181.5136    5651.9291   -2083.7245   -264.61074   -200.73436    290.75224 
  141000       141000    301.35918    93093.952    5568.2563     0.942689   -1148.0509    2219.6551    4871.4797    5926.0524    5907.2369   -551.20096   -195.26535     297.6143    301.35918 
  142000       142000    291.93626    93093.952    4431.8634     0.942689   -1096.6708    2165.7335    3521.3432    4384.9126    5389.3343   -1144.7997     108.3511   -1101.8857    291.93626 
  143000       143000    291.80849    93093.952    4675.2915     0.942689   -1126.2557    2134.7208    5103.8525    4378.8934    4543.1287   -213.47624    3.3249662   -1038.9579    291.80849 
  144000       144000    288.01161    93093.952     3914.482     0.942689   -1049.8784    2168.6677    4349.0975    3983.3073    3411.0411   -1885.1689    106.25147    63.996769    288.01161 
  145000       145000    292.98814    93093.952    3602.8503     0.942689    -1092.196    2181.9631    3981.4908     3141.524    3685.5361   -1188.9822    415.39136    52.658645    292.98814 
  146000       146000    301.45687    93093.952    4843.9629     0.942689   -1159.7216    2209.0761     4444.054    5136.0512    4951.7834   -1006.0998    -26.83049    352.97747    301.45687 
  147000       147000    294.78559    93093.952    4417.0367     0.942689   -1196.6256    2097.6201     3491.165    5125.2111     4634.734   -2327.6641     463.8985    730.22612    294.78559 
  148000       148000    294.08436    93093.952    4954.0756     0.942689   -1160.9898    2125.4197    4588.2497    4455.6593    5818.3177   -585.72525   -370.06324   -471.42232    294.08436 
  149000       149000     294.8029    93093.952    4328.6577     0.942689   -1097.5825    2196.8567    3929.4973    5090.1094    3966.3665   -1265.9563    356.54936    994.85265     294.8029 
  150000       150000    291.16142    93093.952     3729.374     0.942689   -1092.8733    2160.8721    4096.8008    3792.2454    3299.0757   -1689.1379   -4.6886568   -207.89632    291.16142 
  151000       151000    290.78443    93093.952    4661.1128     0.942689   -1099.1838    2150.3487    4387.4793    5044.1554    4551.7037   -1394.1648    465.56068   -437.88577    290.78443 
  152000       152000    298.72568    93093.952    4393.0857     0.942689   -1149.1653    2189.1112    4190.9062    5166.6933    3821.6577    -653.0616   -164.26058   -267.59802    298.72568 
  153000       153000    297.69991    93093.952     4636.237     0.942689   -1129.6487    2197.1648    5258.8556    3696.8535    4953.0018   -806.79123   -6.2341581    692.45441    297.69991 
  154000       154000    296.55042    93093.952    4494.4877     0.942689   -1065.4286    2248.5392    4296.5366    4686.6027    4500.3239   -1234.3548   -660.64842   -511.16399    296.55042 
  155000       155000    292.58318    93093.952    5206.4317     0.942689   -1065.6955    2203.9382    4417.3663     5956.347    5245.5817   -1298.4068    499.77487    298.13394    292.58318 
  156000       156000    293.16879    93093.952    4648.9014     0.942689   -1104.0764    2172.1015    4011.2581    4998.6506    4936.7954   -1187.3141   -496.76555   -657.63966    293.16879 
  157000       157000     289.2347    93093.952    3974.0974     0.942689   -1060.6342    2171.5801    4206.3891    4479.0962    3236.8069   -977.49716   -372.96934    -461.1368     289.2347 
  158000       158000    299.64139    93093.952    4834.7938     0.942689   -1049.8919    2298.6177    5330.0592    4162.4515    5011.8707   -1456.7419   -92.616629   -657.72787    299.64139 
  159000       159000    289.21415    93093.952    4830.2104     0.942689   -1063.8328    2168.1517    4818.4987    5482.1839    4189.9486   -1006.9733   -69.779967    84.904988    289.21415 
  160000       160000    291.20948    93093.952    4748.4998     0.942689   -1029.6615     2224.621    4680.2068    5498.1842    4067.1086   -966.84123    -30.52188    507.90298    291.20948 
  161000       161000    293.51298    93093.952    5036.8167     0.942689   -1045.4444    2234.5798    5387.3656    4397.4947    5325.5897   -456.45545   -600.47409    277.88265    293.51298 
  162000       162000    288.36363    93093.952     4028.287     0.942689   -1009.7364    2212.7436    3968.6719    4101.4839    4014.7052    -1933.594   -1122.5984    -880.9489    288.36363 
  163000       163000    292.78493    93093.952    5235.5548     0.942689   -1051.9672     2219.921    5305.2752     5266.869    5134.5202   -1141.5951   -406.39822    88.999639    292.78493 
  164000       164000    293.14875    93093.952    4616.2707     0.942689   -1029.8438    2246.1101    5172.9732    4270.4879    4405.3511   -1516.4602    606.77723    667.16213    293.14875 
  165000       165000     289.8829    93093.952    4711.9491     0.942689   -1097.1561    2142.3018    4609.5895     4604.125    4922.1329   -1076.0968   -415.51658   -251.98354     289.8829 
  166000       166000    295.51411    93093.952      4677.82     0.942689   -943.00166    2359.3853    4458.5773    5001.4416     4573.441   -687.38995   -743.75418   -831.69984    295.51411 
  167000       167000    290.55737    93093.952    4729.1813     0.942689   -1104.3877    2142.6075    3232.7728    5192.6705    5762.1005   -950.67322    649.85428    490.10169    290.55737 
  168000       168000    297.57903    93093.952    4557.0263     0.942689   -1030.7539    2294.7087    3699.3984    4326.9888    5644.6917    -1023.405   -466.32578   -126.06648    297.57903 
  169000       169000    287.20818    93093.952     4731.403     0.942689    -1034.639    2174.9288    4803.5477    4851.4639    4539.1974   -545.63262    175.69331   -274.51712    287.20818 
  170000       170000    291.93603    93093.952    4666.3583     0.942689   -1098.7658    2163.6359    4061.0686     5762.159    4175.8473   -912.88641    244.21073   -20.484171    291.93603 
  171000       171000    295.44854    93093.952    4331.8016     0.942689   -999.92085    2301.7334    4204.3976    4509.6062    4281.4011   -607.61715    236.61462   -274.51017    295.44854 
  172000       172000    292.49899    93093.952    4795.0937     0.942689   -1098.6714    2170.0214    4369.7934    4266.2611    5749.2265   -1285.4727    158.57578    769.55507    292.49899 
  173000       173000    297.01639    93093.952    3949.9385     0.942689   -1057.8334    2261.3416    3723.5408    3491.9392    4634.3354   -1164.6488    102.18199   -221.24205    297.01639 
  174000       174000    291.51192    93093.952    4388.0384     0.942689   -1056.8368    2200.8255    4136.5868    4403.4671    4624.0614   -1053.9726    35.664766    154.29606    291.51192 
  175000       175000    293.22039    93093.952    5271.0994     0.942689   -1056.4914    2220.2631    5277.0033    5006.7272    5529.5677    -1146.734   -112.12226   -49.511635    293.22039 
  176000       176000    286.82014    93093.952    4481.7096     0.942689   -1013.5911    2191.6403    4593.9135    4692.7376    4158.4776   -214.04498    900.85189    132.79975    286.82014 
  177000       177000    299.94266    93093.952    3883.8064     0.942689   -1097.1122    2254.7641    3334.4599    4311.1592    4005.8001   -876.09932   -378.92333   -488.31315    299.94266 
  178000       178000    292.59171    93093.952    4004.8633     0.942689   -1033.3059     2236.423    4609.8105     3508.449    3896.3304   -730.60553    621.67679    430.77912    292.59171 
  179000       179000    292.93936    93093.952    4880.7947     0.942689   -1060.1629     2213.451    4410.0846    5046.2731    5186.0265    -799.1068    6.0514394   -384.55709    292.93936 
  180000       180000    294.30876    93093.952    4241.3632     0.942689   -1129.3334    2159.5837    3211.9043    4680.8823    4831.3031   -509.71667   -368.98215   -404.37769    294.30876 
  181000       181000    294.51131    93093.952    4065.9047     0.942689   -1034.6436     2256.537     4590.688    4180.1152    3426.9109   -604.04715    1128.7831   -327.23723    294.51131 
  182000       182000    292.24814    93093.952    4516.2966     0.942689   -1108.7467    2157.1428    3783.2762     4787.143    4978.4706   -853.83414   -138.90361    75.639049    292.24814 
  183000       183000    298.48968    93093.952    5078.0612     0.942689   -1030.8496    2304.7896    5549.3792    4195.9062    5488.8982   -943.27269    6.9445252   -55.633032    298.48968 
  184000       184000    296.20894    93093.952    5220.9408     0.942689   -1080.8282    2229.3236     5164.762    5791.1887    4706.8717   -903.69322    320.50289    132.61287    296.20894 
  185000       185000     287.0187    93093.952    4519.9029     0.942689   -1075.7817    2131.6686    3777.2543    5257.1932    4525.2613   -1567.1102    553.42765   -14.758382     287.0187 
  186000       186000     293.6224    93093.952    4384.7675     0.942689   -1039.8139    2241.4331    4082.2264    4655.2938    4416.7823    -1274.125   -349.93589    436.37053     293.6224 
  187000       187000     292.7811    93093.952    4665.7105     0.942689    -1066.367    2205.4784    5399.9064    4561.0825    4036.1426   -938.05431    590.61673   -309.40443     292.7811 
  188000       188000    287.53201    93093.952    4880.0417     0.942689   -1139.4807    2073.7059    3761.2174    5372.6532    5506.2545   -1162.0615   -291.39789   -118.43385    287.53201 
  189000       189000    292.46828    93093.952    4931.1719     0.942689   -932.38306    2335.9666    5126.7778    4707.7056    4959.0323   -373.26911     82.94662    297.57151    292.46828 
  190000       190000    292.33862    93093.952    4654.6375     0.942689   -1053.9756    2212.9251    4802.0171    4432.1861    4729.7092   -1048.0533   -210.64981   -1030.6564    292.33862 
  191000       191000    288.28243    93093.952    3780.2038     0.942689   -987.35899    2234.2136    3803.1923    3967.4757    3569.9433   -205.94096     28.32819    496.53833    288.28243 
  192000       192000    296.09236    93093.952    4835.6459     0.942689   -1045.0995    2263.7496    4119.3484    5823.0958    4564.4935   -485.29462    27.985588    209.80576    296.09236 
  193000       193000    288.40415    93093.952    4807.0423     0.942689   -1014.6071    2208.3257    4561.6865    4972.4837    4886.9567   -717.57499    470.20582    404.92329    288.40415 
  194000       194000    292.30127    93093.952    5237.1782     0.942689   -1058.4983     2207.985    5366.9821    5040.5819    5303.9706   -859.69682   -661.95444   -457.64997    292.30127 
  195000       195000    297.25847    93093.952    4660.5242     0.942689   -1040.8865    2280.9939    4456.8569    4394.2158    5130.4998   -1290.9636   -162.73155   -358.17886    297.25847 
  196000       196000    292.64186    93093.952    5017.8943     0.942689   -1084.2842    2186.0052    4655.0639    4552.1379    5846.4812   -744.02643    235.16847    -22.14379    292.64186 
  197000       197000     289.9899    93093.952    4380.3281     0.942689   -1035.0923    2205.5613    4628.7998     3859.545    4652.6395   -1043.2483    382.50947    395.17615     289.9899 
  198000       198000     292.6532    93093.952    5227.5064     0.942689   -1028.4885    2241.9277    4875.7813    5161.4143    5645.3236   -740.96113    413.66007    -348.4682     292.6532 
  199000       199000     290.4007    93093.952    3902.1072     0.942689   -1049.9211    2195.3231    3775.0522    4223.5535     3707.716   -2145.3506      271.257    922.25236     290.4007 
  200000       200000    303.88904    93093.952    4861.5483     0.942689   -1035.6017    2360.3756     5289.648    4543.9092    4751.0878   -1094.0597   -322.17999   -584.79404    303.88904 
  201000       201000    288.74618    93093.952    4099.9041     0.942689   -1103.2488    2123.5061    3358.7776    4506.6731    4434.2615   -1323.9979   -317.25324   -534.15043    288.74618 
  202000       202000    291.46459    93093.952    4204.4891     0.942689   -1024.1084     2233.025    3444.3196    4942.7916    4226.3561   -714.69568   -72.413525   -78.196345    291.46459 
  203000       203000    292.95292    93093.952      4691.44     0.942689   -975.75874    2298.0068    4831.7117    4844.8052    4397.8031   -1119.1643   -830.67752   -868.35373    292.95292 
  204000       204000    296.71161    93093.952    5060.3822     0.942689   -1156.1943    2159.5749    4322.5859    5146.3813    5712.1794   -917.28597   -501.70791   -398.67333    296.71161 
  205000       205000    284.57477    93093.952    5512.1435     0.942689    -1069.667    2110.4722    4789.9921    5997.6258    5748.8127   -711.78548   -226.23418   -417.41239    284.57477 
  206000       206000     294.4002    93093.952    4236.9497     0.942689   -949.43447    2340.5045    4416.1639    4731.5859    3563.0994   -791.31049   -535.08205   -27.564114     294.4002 
  207000       207000    288.19869    93093.952    4541.5394     0.942689   -1065.9453    2154.6914    4771.3293    4980.3738    3872.9152   -1130.8846    607.21261   -635.44912    288.19869 
  208000       208000    296.56364    93093.952    4797.2969     0.942689   -1049.6293    2264.4862    5569.9343    4161.0083    4660.9483    -1587.361   -120.96789    329.04662    296.56364 
  209000       209000    288.56378    93093.952    5387.1114     0.942689   -1071.6366    2153.0801    4950.4098    5317.7423     5893.182   -1217.5651    57.848817    462.73595    288.56378 
  210000       210000    299.11168    93093.952    3906.2673     0.942689   -952.88414    2389.7059    3301.1056     4056.888    4360.8085   -1063.7541    349.16525   -174.87791    299.11168 
  211000       211000    287.66788    93093.952    4264.1301     0.942689   -1121.1237    2093.5812    3237.0013    5157.8706    4397.5184   -1537.7186   -492.25432   -106.15012    287.66788 
  212000       212000    301.00439    93093.952    5142.8708     0.942689   -1011.5761    2352.1651    4429.5391    5352.1402    5646.9331   -822.50673   -401.19771   -617.55604    301.00439 
  213000       213000    288.65845    93093.952    4120.6481     0.942689    -1080.256    2145.5186     3429.169    4539.0757    4393.6997   -667.86153    -104.9486    -508.9724    288.65845 
  214000       214000    293.40625    93093.952    3157.2904     0.942689   -1004.8021    2274.0294    3143.0361    2967.3534    3361.4818   -836.16843   -598.26692    103.61405    293.40625 
  215000       215000      293.864    93093.952    4323.7328     0.942689   -1040.6714    2243.2755    3388.7411    4652.7146    4929.7428   -908.08639    55.503399   -97.754067      293.864 
  216000       216000    292.49137    93093.952    4834.6324     0.942689   -1007.0942    2261.5136    4175.2147    5009.2479    5319.4346   -1030.5374    3.3195192    -220.8171    292.49137 
  217000       217000     289.7426    93093.952    3812.4049     0.942689   -1071.8219    2166.0682    3564.0765    3650.2882    4222.8501   -370.73423   -420.73973    383.45219     289.7426 
  218000       218000    296.82134    93093.952    4459.7762     0.942689    -1005.122    2311.8734    3957.7583    5062.9569    4358.6135    -577.1137    186.07925   -597.05417    296.82134 
  219000       219000    286.86132    93093.952     4007.932     0.942689   -1080.8261    2124.8655    3947.3367    4709.5038    3366.9555   -1047.5161    262.55039   -369.48467    286.86132 
  220000       220000     290.3497    93093.952    4024.9805     0.942689   -1001.6895    2242.9849    2891.7173    4648.2145    4535.0097   -1613.4784    422.34711   -359.66383     290.3497 
  221000       221000    292.97685    93093.952    4168.0466     0.942689   -1049.1071    2224.9258    4478.9604    3893.7792    4131.4002   -409.16782   -489.15175    9.8761486    292.97685 
  222000       222000    297.31797    93093.952    4962.9198     0.942689    -952.0333     2370.512    4356.0748    4496.7354    6035.9493   -1789.0441    -595.5847    205.29135    297.31797 
  223000       223000    287.44507    93093.952    4939.1623     0.942689   -1026.8662    2185.3488    5071.1929    5875.2781    3871.0158   -837.68816    418.77898    147.60368    287.44507 
  224000       224000    293.03918    93093.952    3723.0282     0.942689   -1026.5402    2248.1893    2693.3252    4113.6425    4362.1167   -1192.3335    119.28575   -496.97063    293.03918 
  225000       225000    292.61133    93093.952    3879.9897     0.942689   -1058.8969    2211.0514    2906.1265    4451.0254     4282.817   -825.85845   -705.00716    -300.4402    292.61133 
  226000       226000    293.99892    93093.952    4285.8367     0.942689   -1000.4509    2285.0038    4081.7303    3805.7946    4969.9853   -795.19015    278.15169   -303.41643    293.99892 
  227000       227000    287.59933    93093.952    4550.4006     0.942689   -1006.1947    2207.7441    4494.9302    4147.2926     5008.979   -613.42069   -367.97299    -127.5111    287.59933 
  228000       228000    292.89422    93093.952      4657.75     0.942689   -968.42955      2304.68    4471.7822    5091.8758     4409.592   -650.41651    250.89426   -259.97227    292.89422 
  229000       229000    288.87483    93093.952      4509.74     0.942689   -1111.1577     2117.035    5021.3195    4146.0501    4361.8504   -563.01199   -203.41893   -302.36983    288.87483 
  230000       230000     295.6885    93093.952    5469.1713     0.942689   -1014.4754    2289.8604    5479.9902     5209.576    5717.9479   -1188.6294   -294.07407   -912.12141     295.6885 
  231000       231000    290.34378    93093.952    4567.3841     0.942689   -1069.1823     2175.426    4109.6408    5173.9887    4418.5228   -1748.7911    125.93291   -299.28701    290.34378 
  232000       232000    293.36605    93093.952    5440.6667     0.942689   -1094.8898    2183.4925     4696.641    5835.7536    5789.6054   -385.75174   -376.08053     137.8622    293.36605 
  233000       233000    294.13104    93093.952    4998.6543     0.942689   -999.72923    2287.2018    4441.2984      5624.82    4929.8446   -850.47193   -270.07522   -945.16651    294.13104 
  234000       234000    298.38272    93093.952    4254.9575     0.942689   -1123.2517    2211.1921     4150.331    3989.3839    4625.1576   -1429.2005   -156.86349    619.54397    298.38272 
  235000       235000    300.00889    93093.952    5191.3937     0.942689   -1062.7286    2289.8878    5550.9564    4415.6867     5607.538   -1033.6014   -390.52974   -400.38266    300.00889 
  236000       236000    288.92912    93093.952    5335.5173     0.942689   -1049.3313    2179.4681    5553.4728     4620.786    5832.2932   -1156.9756    55.216934   -983.50131    288.92912 
  237000       237000    295.18196    93093.952    4148.9793     0.942689   -1035.1594    2263.5158     3387.449     3905.434    5154.0548   -452.29835    390.89108   -80.499186    295.18196 
  238000       238000     294.5859    93093.952    4061.6556     0.942689   -1140.5742      2151.44    3709.3805    4942.5127    3533.0736   -1893.3371   -505.02956   -28.638579     294.5859 
  239000       239000    287.97536    93093.952    3792.3536     0.942689   -1020.6497    2197.4913    4018.0306    3686.0734    3672.9569   -1020.4166   -98.718511    84.063428    287.97536 
  240000       240000    289.58687    93093.952    4450.9934     0.942689   -1070.1931    2165.9566    4266.5979    4719.4576    4366.9245   -717.31864   -425.84446    -396.6742    289.58687 
  241000       241000    288.84157    93093.952    5121.6036     0.942689   -1018.4304    2209.3907    5848.6799    4563.0446    4953.0863   -1021.8675    192.52556   -1011.2713    288.84157 
  242000       242000    297.05171    93093.952    4986.5593     0.942689   -1103.6443    2215.9255    4917.0914    6384.8101    3657.7765    203.64319   -241.04673   -855.31467    297.05171 
  243000       243000    288.69506    93093.952    4549.8806     0.942689    -1105.192    2120.9917    4467.5262    4564.9609    4617.1548   -651.65315   -217.72123    402.47613    288.69506 
  244000       244000    298.52879    93093.952    4852.5083     0.942689   -971.56803    2364.5082    4786.0573    5060.8696    4710.5982   -261.55635     339.1996    855.93222    298.52879 
  245000       245000    285.28441    93093.952    4695.1226     0.942689   -1039.4804    2148.5891     4893.553    4859.5616    4332.2533   -1086.1086    86.776977    218.91161    285.28441 
  246000       246000    296.84443    93093.952    4514.5023     0.942689   -1076.8292    2240.4242    4176.6651    4907.7184    4459.1233   -699.43105   -92.677319   -120.20995    296.84443 
  247000       247000    291.20247    93093.952    4462.1643     0.942689   -1066.8439    2187.3603    4296.5642    5735.4739    3354.4548    -1131.404   -1118.0972    375.27097    291.20247 
  248000       248000    294.76844    93093.952    3979.3935     0.942689   -1043.5145    2250.5395    3487.3365     3585.728    4865.1161   -1478.1319   -83.330051    23.627321    294.76844 
  249000       249000    298.08749    93093.952    4187.7531     0.942689   -1090.6047      2240.54    3918.4173    3916.2726    4728.5693   -669.89891   -128.77087   -717.79378    298.08749 
  250000       250000    294.74152    93093.952    5030.0588     0.942689   -1106.9749    2186.7784    5634.0904    4496.1426    4959.9434   -953.11763   -892.14397   -184.70082    294.74152 
  251000       251000    288.20102    93093.952    4324.3959     0.942689   -1074.0148    2146.6481    4323.9204    3877.7534    4771.5139   -764.10175    195.05714   -708.66603    288.20102 
  252000       252000    288.41924    93093.952    5009.6599     0.942689   -1027.9073    2195.1942     4022.024     5750.149    5256.8066   -1097.7286    1317.4127    346.73002    288.41924 
  253000       253000    290.51084    93093.952    4203.5431     0.942689   -1053.7901    2192.6851    4215.2987    4128.3593    4266.9711   -413.46454    33.656819    20.049463    290.51084 
  254000       254000    295.56611    93093.952    4621.8829     0.942689   -997.85117    2305.1169    4614.1583    4418.3479    4833.1424   -1393.1916   -740.02603   -443.23642    295.56611 
  255000       255000     293.1717    93093.952    4991.9906     0.942689   -1156.5667    2119.6437    5124.4424    5471.9141    4379.6152   -815.54129   -315.55542   -61.988382     293.1717 
  256000       256000    289.87499    93093.952    4513.6285     0.942689   -1039.4089    2199.9606    4676.8853    5132.2407    3731.7595    136.11164    17.678159   -201.80445    289.87499 
  257000       257000    293.94675    93093.952    3964.1835     0.942689   -1022.6274    2262.2442    3041.0596    4326.1475    4525.3434    379.83494   -447.48145    182.62001    293.94675 
  258000       258000    293.63055    93093.952     4874.771     0.942689   -1048.9758    2232.3623    4306.5617    5533.4521    4784.2993   -987.65033   -475.66875    -641.2799    293.63055 
  259000       259000    296.80324    93093.952    4834.1807     0.942689   -1042.5288    2274.2643    4616.8279    5083.4569    4802.2573   -415.18779    88.927765     765.5806    296.80324 
  260000       260000    297.67983    93093.952    3506.1296     0.942689   -1109.0802    2217.5089    3988.7176    3562.1161    2967.5549   -787.12422     289.4625  -0.45478773    297.67983 
  261000       261000    290.60527    93093.952    4409.3227     0.942689   -1042.8467    2204.6837     4452.369    3823.7685    4951.8307    -693.6849    462.23203   -237.02493    290.60527 
  262000       262000    296.65523    93093.952    4402.3221     0.942689   -996.18421    2318.9548    3992.3691    4742.5678    4472.0294   -1395.8391    102.07135    144.34611    296.65523 
  263000       263000    289.22802    93093.952    5603.2011     0.942689   -1094.1792    2137.9603    5139.6809    5899.9028    5770.0196   -959.84023   -161.22055   -226.66633    289.22802 
  264000       264000    297.11421    93093.952    4713.5749     0.942689   -997.99882    2322.2693    3787.2546    4871.9734    5481.4966   -1198.6737   -413.21453    349.15498    297.11421 
  265000       265000    287.46143    93093.952    4563.4508     0.942689   -1179.5013    2032.8965    3788.4083    4522.8881     5379.056   -1341.3486   -381.20616    1096.0314    287.46143 
  266000       266000    303.22677    93093.952    5279.6383     0.942689   -911.54126    2477.0351    5105.4446    5829.7666    4903.7037   -1067.3745   -960.01226   -123.02349    303.22677 
  267000       267000    280.64992    93093.952    4044.1006     0.942689   -1138.5617    1997.7171    3979.9339    4103.0412    4049.3268   -805.04994    -9.171696   -864.25094    280.64992 
  268000       268000    299.96537    93093.952    4694.0478     0.942689   -974.47365    2377.6564     3647.328    5657.6055    4777.2097   -877.62359   -437.97431   -88.047641    299.96537 
  269000       269000    291.71199    93093.952    3525.7826     0.942689   -1060.0087    2199.8893    3145.5402    3928.1035    3503.7042   -2341.6554   -164.13821   -261.50253    291.71199 
  270000       270000    295.92522    93093.952    4769.3953     0.942689   -1075.6984    2231.2828    4909.8764    4703.9006     4694.409   -560.13356   -402.39327   -55.795163    295.92522 
  271000       271000    290.90689    93093.952     5037.398     0.942689   -1063.7913    2187.1097    5095.6025    5114.8985    4901.6929   -354.57371   -810.76816   -460.75988    290.90689 
  272000       272000    293.23668    93093.952    4140.2287     0.942689   -978.44029    2298.4963    3698.4534     4708.674    4013.5588   -1624.8316   -239.82113    573.44772    293.23668 
  273000       273000    296.41223    93093.952    4792.7486     0.942689   -1023.3972    2289.0263    4770.1262    5495.4193    4112.7003   -593.83562   -74.554302    141.26195    296.41223 
  274000       274000     291.8869    93093.952    4723.8985     0.942689   -1082.6795    2179.1732    4597.3282    4074.4893     5499.878   -933.00596    227.07395    268.26679     291.8869 
  275000       275000    291.19708    93093.952    5296.5946     0.942689   -1013.5307    2240.6132    4343.3504    5271.6391    6274.7944   -1004.6243    143.30103    336.68406    291.19708 
  276000       276000    298.84485    93093.952    3956.6108     0.942689     -955.804    2383.8042     3581.746    3541.5733    4746.5132   -1189.0042   -177.60828   -736.65443    298.84485 
  277000       277000    288.51764    93093.952    4715.5134     0.942689   -1085.8045    2138.3965    4052.6458    4975.2281    5118.6662      -539.29   -194.63291    353.73059    288.51764 
  278000       278000    298.22886    93093.952     4565.429     0.942689   -956.47887    2376.2456    4053.1392    5536.2763    4106.8714   -1259.5281   -185.90675    248.42023    298.22886 
  279000       279000    294.74275    93093.952    4075.0476     0.942689   -1195.2573    2098.5097      3656.46    4245.8096    4322.8731   -1760.8619    139.87077    313.77606    294.74275 
  280000       280000     297.1901    93093.952     3878.894     0.942689   -993.34754    2327.7687    4281.0675    3644.2354    3711.3791   -749.79363   -51.978885    459.73529     297.1901 
  281000       281000    288.28058    93093.952    4491.5612     0.942689   -1027.6132    2193.9387    4219.9667    5309.0244    3945.6926   -1157.7687   -670.42866   -2.2662821    288.28058 
  282000       282000    293.53264    93093.952    4346.0024     0.942689   -998.82658    2281.4174    3944.9685    4304.1806    4788.8582   -1504.2311   -128.36878   -186.21716    293.53264 
  283000       283000    295.17821    93093.952     4014.867     0.942689    -983.5973     2315.036    4267.9042    3684.2631    4092.4336   -1011.0793   -199.44239   -189.86974    295.17821 
  284000       284000    291.82078    93093.952    4935.6409     0.942689   -1039.5496    2221.5643    3909.8978    5189.7822    5707.2427   -1421.6723   -11.427764    446.62011    291.82078 
  285000       285000    295.50754    93093.952    4724.8928     0.942689   -1081.1758    2221.1377    4809.2706    5094.1953    4271.2125    -1146.765    318.24385    119.11307    295.50754 
  286000       286000    292.08886    93093.952    5139.9138     0.942689   -1001.4775    2262.6321    5389.5727    4789.8557    5240.3128   -1141.4479    81.653155   -111.91442    292.08886 
  287000       287000    289.20491    93093.952    4315.6412     0.942689   -1018.4766    2213.4047    4489.0083    4845.4732    3612.4421   -741.12575    273.87905   -463.33733    289.20491 
  288000       288000    293.65836    93093.952    4950.1111     0.942689   -1000.1148    2281.5342     5848.154    4646.7137    4355.4656   -928.05018   -340.05672   -147.80225    293.65836 
  289000       289000    292.00341    93093.952    4556.4313     0.942689   -1035.6122    2227.5425    3048.2345    5236.6222    5384.4371   -1632.6896     39.95879   -414.30938    292.00341 
  290000       290000    293.01217    93093.952    4290.7736     0.942689   -981.97158    2292.4561     3566.659    5015.2723    4290.3894   -984.93764   -19.341785    40.559697    293.01217 
  291000       291000    292.67913    93093.952    4889.6847     0.942689   -1028.3053    2242.4006    5093.0081    4777.2948    4798.7511   -478.99651    7.7094483    -584.1759    292.67913 
  292000       292000    297.80445    93093.952    5394.6722     0.942689   -1042.5947    2285.3869    5170.9648    5559.8673    5453.1846    -1239.484    275.46948    430.66837    297.80445 
  293000       293000    287.69782    93093.952    4602.6847     0.942689   -965.38453    2249.6549    4001.3531    5807.8694    3998.8315   -1700.7554    628.70213    1191.4906    287.69782 
  294000       294000     299.2207    93093.952    4509.5713     0.942689   -1001.6273     2342.181    4599.9117    4787.3349    4141.4674   -1302.1862   -44.906055   -82.449978     299.2207 
  295000       295000    289.26069    93093.952    4333.8775     0.942689   -977.15053    2255.3541     3875.158    4789.5601    4336.9145   -1608.3351   -21.370536    897.01584    289.26069 
  296000       296000    299.38096    93093.952    4528.8835     0.942689   -1010.1623     2335.437    4307.2846    4623.9784    4655.3873   -1263.2534    -751.3742   -445.40564    299.38096 
  297000       297000    299.81864    93093.952    3829.3609     0.942689   -1040.1914     2310.299    2890.8736    3929.7286    4667.4806   -1149.8041   -625.20593    79.288954    299.81864 
  298000       298000    290.37835    93093.952     4810.481     0.942689   -1079.1937    2165.8008    4735.7412    5350.0888    4345.6131   -894.37946   -68.610563    -284.4567    290.37835 
  299000       299000    297.26052    93093.952    5179.9106     0.942689   -1007.1325    2314.7707    4923.4992    5409.4074    5206.8253   -241.20066    96.877257     159.6682    297.26052 
  300000       300000    291.79188    93093.952    3856.3604     0.942689   -980.66043    2280.1304    2639.9008    4692.9194    4236.2609   -1695.1935    199.93123    285.44833    291.79188 
  301000       301000    292.03244    93093.952    3822.9471     0.942689   -954.75655    2308.7226     2821.451    4110.6194     4536.771   -968.36636    427.12843    301.48514    292.03244 
  302000       302000    287.26845    93093.952     4568.381     0.942689   -996.52172    2213.7196    3812.2426    5453.4197    4439.4807   -1421.2612     518.9748   -1017.3903    287.26845 
  303000       303000    288.83879    93093.952     4444.343     0.942689   -941.16176    2286.6281    4952.4779    4146.0128    4234.5382   -1137.2387   -163.53809    111.70116    288.83879 
  304000       304000    290.75216    93093.952     5085.619     0.942689   -962.92786     2286.244    5051.4737    5217.9539    4987.4294   -532.18631   -7.0399946    314.30961    290.75216 
  305000       305000    289.63006    93093.952    5249.0812     0.942689   -970.95506    2265.6773     6359.058    5084.0871    4304.0986   -1091.3214    1419.2662    288.52607    289.63006 
  306000       306000    300.42098    93093.952    4349.9676     0.942689   -1124.3874    2232.8342    4599.7856    3610.4383    4839.6788   -1853.0752    208.06822   -357.72499    300.42098 
  307000       307000     291.4926    93093.952    4952.3872     0.942689   -962.97146     2294.475    5259.1809    4932.0728    4665.9078    -638.0263    289.54071   -458.41275     291.4926 
  308000       308000    291.13084    93093.952    4515.6214     0.942689   -1004.8108    2248.5929    4178.7839    4557.5217    4810.5587   -1591.9324    719.46491    448.39471    291.13084 
  309000       309000    294.99524    93093.952     3852.716     0.942689   -923.18225    2373.4064    3960.6171    3603.8904    3993.6405   -1213.7265   -136.23593     309.6048    294.99524 
  310000       310000    296.69116    93093.952    4712.1705     0.942689   -1089.4912    2226.0494    4730.4447    4720.3074    4685.7596    -742.0145    484.60653    331.08376    296.69116 
  311000       311000     289.9109    93093.952    4207.4724     0.942689   -959.88772     2279.883    4286.4481    4104.2115    4231.7574    479.16233   -74.154617   -507.89089     289.9109 
  312000       312000     290.6812    93093.952    4457.3922     0.942689   -999.76113    2248.6178    4416.3174    4611.1819    4344.6772    -655.1082    497.25315    166.90631     290.6812 
  313000       313000     290.0164    93093.952    3693.5006     0.942689   -970.01061    2270.9391    3464.2415    4053.9908    3562.2697   -798.64934   -1088.5249   -418.18687     290.0164 
  314000       314000    297.36871    93093.952    5655.6121     0.942689   -1063.4052    2259.7071    6059.3358    5765.8951    5141.6053   -717.48814     832.0388    606.14597    297.36871 
  315000       315000     293.0727    93093.952    4951.0622     0.942689   -1042.9028    2232.2013    4357.7911    5608.6987    4886.6969   -1325.9445   -293.19477     106.6304     293.0727 
  316000       316000    296.00173    93093.952    4574.6015     0.942689   -1004.3132    2303.5229    4891.6119    4185.2952    4646.8975   -1630.4034    72.014493   -303.40732    296.00173 
  317000       317000    292.88325    93093.952    4014.1313     0.942689   -1038.9653    2234.0217    3732.6038    4204.2438    4105.5462   -767.05738   -629.02436    74.035101    292.88325 
  318000       318000    290.73156    93093.952    4565.0165     0.942689   -980.94965    2267.9921    4341.6727    5140.3396    4213.0372   -1178.5074   -389.72092   -85.113883    290.73156 
  319000       319000    296.66707    93093.952    4822.0515     0.942689   -1054.9656    2260.3058     4571.013     4757.091    5138.0505    -1068.625    69.549558     14.16581    296.66707 
  320000       320000    294.76583    93093.952    5499.9463     0.942689   -1042.9083    2251.1166    4922.2244    5947.3414     5630.273   -644.61967   -49.181221    144.51085    294.76583 
  321000       321000     296.2505    93093.952     3969.617     0.942689   -1003.0254    2307.5908    3837.1152    3630.8771    4440.8587   -833.58718   -670.50853    3.7065891     296.2505 
  322000       322000    286.33719    93093.952    5429.9626     0.942689   -992.66833     2207.166    4761.2733    5704.2948    5824.3198   -223.33459   -459.00673   -798.16102    286.33719 
  323000       323000    288.89624    93093.952    4205.9667     0.942689   -1028.0014    2200.4305    3785.3676    4306.0563    4526.4762   -1402.4364    266.83431    611.27638    288.89624 
  324000       324000    294.26101    93093.952    5058.7488     0.942689   -992.24951     2296.134    4120.2027     5328.781    5727.2627    70.890936    348.83501   -21.867147    294.26101 
  325000       325000    294.58479    93093.952    4464.5225     0.942689   -1050.1997     2241.802    3609.6916     4727.782    5056.0939     -881.981    105.04889    1034.5388    294.58479 
  326000       326000    294.38057    93093.952    4430.5856     0.942689   -1044.6937    2245.0259     3574.448    5292.7059    4424.6028   -1259.8307    464.86149   -400.14756    294.38057 
  327000       327000    288.95546    93093.952    5289.9296     0.942689    -1040.236    2188.8577    3581.4105     7071.974    5216.4042   -1140.3361   -356.05554    68.345789    288.95546 
  328000       328000    293.66516    93093.952    4559.5491     0.942689   -1053.5106    2228.2143    3486.0577    5228.5016    4964.0879   -779.86093    208.70825    123.81052    293.66516 
  329000       329000    301.78283    93093.952    5179.3405     0.942689   -1091.2381    2281.2022    4732.2443    5137.5609    5668.2164   -475.25483   -159.73086   -369.02909    301.78283 
  330000       330000    295.40462    93093.952     4564.672     0.942689   -1031.1569    2270.0066    5193.5116    4542.8007    3957.7037   -748.22652   -46.214557   -301.11381    295.40462 
  331000       331000    300.03388    93093.952    4192.1766     0.942689   -1017.1999    2335.6957    3890.8673    4093.7841    4591.8783   -1095.6313   -364.06393    486.58306    300.03388 
  332000       332000    301.94653    93093.952    4372.8716     0.942689   -1173.3891    2200.8805    3972.8717    4286.6086    4859.1344   -927.39953   -612.96385   -20.710529    301.94653 
  333000       333000    295.81129    93093.952    3585.4741     0.942689   -991.25668    2314.4513     2617.026    4392.9265    3746.4699   -1695.1849   -401.62368     148.5188    295.81129 
  334000       334000      289.087    93093.952    4794.6016     0.942689   -1109.4749    2121.0888    5092.1522     5217.472    4074.1805   -341.75758    295.84108    531.96457      289.087 
  335000       335000    297.28377    93093.952    4313.0913     0.942689   -1014.4233    2307.7398    4087.3649    4828.3909    4023.5182   -963.61317   -239.23069    -181.4727    297.28377 
  336000       336000    296.54365    93093.952    4950.7728     0.942689   -995.71591    2318.1763    4709.3746    4723.4201    5419.5238   -711.49944    343.71318   -200.10048    296.54365 
  337000       337000     291.7317    93093.952    4413.1387     0.942689   -1049.8501    2210.2683    4300.8921    4948.5746    3989.9496      -1133.3   -24.667559   -5.7191886     291.7317 
  338000       338000    298.80465    93093.952    4763.7308     0.942689   -1022.4964    2316.6626    4328.2951    5809.1247    4153.7727   -226.58182   -451.39699    316.96478    298.80465 
  339000       339000    288.72498    93093.952    4404.9642     0.942689   -1018.8685    2207.6496    4632.4953    4593.9708    3988.4265   -222.16893    117.88323    557.03067    288.72498 
  340000       340000    289.30755    93093.952    4087.7145     0.942689   -961.08508    2271.9432    3601.6491    4559.1589    4102.3355   -1972.3245    -288.2498   -363.28043    289.30755 
  341000       341000    297.26811    93093.952    4932.5682     0.942689   -1044.7731     2277.215    4560.9347    5104.7371    5132.0328   -1282.5559   -512.62442    308.00293    297.26811 
  342000       342000    304.40689    93093.952    5475.6479     0.942689   -921.28591    2480.4784    5070.2795    5070.6399    6286.0243   -1127.2605    1144.3145    281.76369    304.40689 
  343000       343000    289.33463    93093.952    5164.5705     0.942689   -1061.9423    2171.3886    5233.5593    5791.8433    4468.3091   -691.81158     521.5661    184.81325    289.33463 
  344000       344000    292.47834    93093.952     5576.369     0.942689    -976.3228    2292.1393    4794.2555    5992.4879    5942.3636    -1203.251   -769.59404   -515.98844    292.47834 
  345000       345000    298.59995    93093.952    4063.1141     0.942689   -1077.5504    2259.3211     3870.619    3879.8946    4438.8287   -1152.1723   -438.54746    153.58884    298.59995 
  346000       346000    291.11014    93093.952    5638.8204     0.942689   -910.15466    2343.0177    4901.5307    6056.6541    5958.2765   -702.90233    148.79627    356.44551    291.11014 
  347000       347000     288.7971    93093.952    4582.3525     0.942689   -1017.6837    2209.6402    3634.4085    5041.6569     5070.992   -1189.2459   -348.60989   -153.86124     288.7971 
  348000       348000    294.61628    93093.952    4698.4929     0.942689   -967.99931    2324.3543    4345.0579    5673.4962    4076.9247   -1326.8465   -243.40411    444.19758    294.61628 
  349000       349000    296.86358    93093.952    4701.9801     0.942689   -1067.8967    2249.5706    5294.9456    4116.2191    4694.7754   -1258.2899    358.72535    215.52396    296.86358 
  350000       350000    294.10334    93093.952    4244.1644     0.942689   -1024.1167    2262.5048    3791.0005    4514.4242    4427.0685    -1433.511    484.78484    248.59568    294.10334 
  351000       351000    294.12028    93093.952    4841.1356     0.942689   -1015.4927    2271.3182    4924.4093    4768.4369    4830.5606   -1144.0535    185.22324    -175.2192    294.12028 
  352000       352000    293.10389    93093.952    4394.6061     0.942689   -982.14912    2293.3035    3669.7164    4929.9316    4584.1705   -1158.5105   -139.02286   -475.38076    293.10389 
  353000       353000    296.48615    93093.952    4755.9994     0.942689   -966.89025    2346.3594     4718.717     4899.651    4649.6301   -263.69761    91.749068   -561.02972    296.48615 
  354000       354000    289.67144    93093.952    4278.1559     0.942689   -1012.8536    2224.2413    3797.1208    5551.1996    3486.1472   -842.45359    -1009.771     185.2715    289.67144 
  355000       355000    291.45477    93093.952    4207.5288     0.942689   -897.74577    2359.2779    3456.4021    4841.3289    4324.8555   -1515.5629   -960.22448    78.865893    291.45477 
  356000       356000    295.92944    93093.952    4820.6524     0.942689   -940.46762    2366.5606     4054.078    5145.7094    5262.1698   -1251.0254    284.76754   -328.59308    295.92944 
  357000       357000    286.74243    93093.952    4933.0572     0.942689   -1000.3585    2204.0045    4325.9857     5484.309    4988.8768   -1223.8725   -275.52597   -899.26884    286.74243 
  358000       358000    290.62354    93093.952    4426.6493     0.942689   -943.10153    2304.6331    4405.0988    4985.3777    3889.4713   -929.11929    17.164381    533.35424    290.62354 
  359000       359000    299.53193    93093.952    4940.1806     0.942689   -994.45176    2352.8345     4336.278    5173.1404    5311.1233   -1260.2535   -340.82557   -424.37148    299.53193 
  360000       360000    295.65978    93093.952    5325.2604     0.942689   -974.63489      2329.38    4526.5885    5716.8876     5732.305   -671.16878    465.14886    128.36196    295.65978 
  361000       361000    286.17154    93093.952    4834.7298     0.942689   -1030.2743    2167.7089    4409.4786    5235.8646    4858.8462   -1383.9825   -231.35346    35.734782    286.17154 
  362000       362000    295.16733    93093.952     5463.356     0.942689   -981.85213    2316.6595     4382.687    6610.1041    5397.2768   -434.70918    607.62948    428.01615    295.16733 
  363000       363000    291.23171    93093.952    5236.1477     0.942689   -1041.7867    2212.7442    5395.4576    5055.1796    5257.8059   -715.46723   -386.73085   -425.73502    291.23171 
  364000       364000    299.86903    93093.952    4184.8207     0.942689   -982.46876    2368.5847    4421.3231    4096.9147    4036.2242   -861.39863   -184.55262   -313.44927    299.86903 
  365000       365000    291.75926    93093.952    4173.2404     0.942689   -1071.5262    2188.9001    3806.5115    3801.5948    4911.6148   -618.52797   -82.669892    149.14063    291.75926 
  366000       366000    284.08514    93093.952    5597.1145     0.942689   -969.74881    2204.9188    5218.5988    6428.9186    5143.8261   -947.87513   -475.72449    416.48298    284.08514 
  367000       367000    291.77096    93093.952    4009.5154     0.942689   -970.39832    2290.1587    2229.0038    4370.6216    5428.9209   -814.76605   -247.20471    593.58541    291.77096 
  368000       368000    290.94676    93093.952    4260.5791     0.942689   -1109.0819    2142.2648    4879.6585    4065.5601    3836.5187   -709.75187   -188.10162   -532.91385    290.94676 
  369000       369000    294.28216    93093.952    4161.1602     0.942689    -979.5683    2309.0516    4140.7484    3445.4883     4897.244    -541.0566    197.19962   -400.61851    294.28216 
  370000       370000    292.31706    93093.952    4746.8446     0.942689   -1054.8748     2211.785    4623.0315    5420.8064    4196.6959   -555.87083    -15.00738    343.75313    292.31706 
  371000       371000    293.71517    93093.952    4522.5044     0.942689   -970.25694    2312.0268    3632.0992    5328.6654    4606.7488   -369.00097    76.094389    453.20768    293.71517 
  372000       372000    290.25605    93093.952    4297.7525     0.942689   -1075.7045    2167.9234    4213.9208     4362.772    4316.5648    -762.0226   -48.737106    455.17395    290.25605 
  373000       373000    295.62696    93093.952    4516.3862     0.942689    -1038.829    2264.8191    4400.1624    4139.0124    5009.9837   -322.69421   -168.65085    27.617076    295.62696 
  374000       374000    289.39976    93093.952    4703.9912     0.942689   -987.35779     2246.701    5313.3304    3808.7169    4989.9263   -1709.3958   -610.90818   -565.83402    289.39976 
  375000       375000    291.63851    93093.952     4077.398     0.942689   -986.12805    2272.9489     4054.581     4212.974     3964.639    -841.0279   -589.59314   -65.059936    291.63851 
  376000       376000    289.89272    93093.952    5013.3715     0.942689   -1079.1719    2160.3957    4197.4174    5733.1863    5109.5109   -1198.7139   -206.07731    120.37735    289.89272 
  377000       377000    294.24408    93093.952    4644.9335     0.942689   -1018.5616    2269.6328    4064.3206    4464.5319    5405.9479   -674.04078    345.82657   -32.384529    294.24408 
  378000       378000    289.44594    93093.952    4438.0683     0.942689    -1057.573    2177.0019    4390.8077    4645.3588    4278.0385   -911.14059    900.94016    200.90765    289.44594 
  379000       379000    297.06916    93093.952      4277.93     0.942689   -967.47111    2352.2936    4060.6621    4455.6443    4317.4835   -488.21935   -1011.2078    224.78862    297.06916 
  380000       380000      287.902    93093.952    3536.6944     0.942689   -1008.2788    2209.0424    2250.4632     4303.881     4055.739   -325.95448    278.19508   -129.85357      287.902 
  381000       381000    294.93059    93093.952    5654.5663     0.942689   -950.03256    2345.8335     5303.723    6398.9274    5261.0485   -508.62577   -616.44267   -1039.8808    294.93059 
  382000       382000    289.49378    93093.952    4211.1633     0.942689   -1015.2964    2219.8131    3874.2388    3993.6034    4765.6477   -511.39698    144.95175    406.66753    289.49378 
  383000       383000    301.07315    93093.952    4674.6833     0.942689   -1027.3853    2337.1243    4965.8387    4783.5998    4274.6114   -761.33994    555.14244   -296.30571    301.07315 
  384000       384000    288.66432    93093.952     4837.561     0.942689   -1039.7197    2186.1205    4500.0511    4770.5178    5242.1142   -999.99482    121.27825     408.4689    288.66432 
  385000       385000    291.26363    93093.952    4413.3052     0.942689   -1050.0808    2204.8068    4000.6699    5256.8054    3982.4403    -1482.765    343.50582    114.09212    291.26363 
  386000       386000    290.90858    93093.952    4362.7314     0.942689   -1025.8332    2225.0867    4239.3048    5074.7557    3774.1336   -1210.0962    147.83361     412.1689    290.90858 
  387000       387000    287.99323    93093.952    4250.3523     0.942689   -962.53388    2255.8069    4495.9057    3587.9444    4667.2066   -807.03472    229.77048    158.97948    287.99323 
  388000       388000    295.13931    93093.952    4797.8749     0.942689   -1040.3746     2257.824    4823.5149     5353.515    4216.5948    -769.9785    105.75054    76.132955    295.13931 
  389000       389000    289.63659    93093.952    4871.0412     0.942689    -1003.684    2233.0214    4467.4047    5280.8924    4864.8264   -1864.3351    133.74794    18.663933    289.63659 
  390000       390000    294.01837    93093.952    4320.7198     0.942689   -1030.0886    2255.5833    5069.5298    4339.7105    3552.9192   -1538.2309   -402.22502   -332.80382    294.01837 
  391000       391000    291.09386    93093.952    4225.1566     0.942689   -1065.1244    2187.8661    4107.3225    3097.4476    5470.6997    -1005.029    683.16134    134.03387    291.09386 
  392000       392000    298.74299    93093.952     5018.611     0.942689   -975.24639    2363.2235    4936.7664    5018.2987     5100.768   -1261.8343    69.755259   -673.63307    298.74299 
  393000       393000    286.13985    93093.952    4716.2242     0.942689   -1027.2411     2170.388    3964.3987     5097.939    5086.3348   -1356.5201    200.49733    152.70773    286.13985 
  394000       394000    304.63861    93093.952    5003.1677     0.942689   -1009.4443    2394.9094    4502.0141    5485.4768    5022.0122   -871.63735    670.06432    320.76247    304.63861 
  395000       395000     286.0828    93093.952    4278.6571     0.942689   -1018.0762    2178.9154    2970.0119    5688.2472    4177.7122   -1001.7634    670.11015   -336.75076     286.0828 
  396000       396000    296.03012    93093.952    5060.1256     0.942689   -1008.3733    2299.7801    4112.1019    5356.0371    5712.2377   -642.25018   -282.82725   -244.12964    296.03012 
  397000       397000    293.27663    93093.952    3965.2917     0.942689   -989.28778    2288.0952    3382.0397    4544.6661    3969.1692   -465.72373   -770.52246    -702.2186    293.27663 
  398000       398000    291.30599    93093.952    5276.7389     0.942689   -1061.8383    2193.5227    5457.2647     5435.676     4937.276   -813.05833   -260.09718    232.42155    291.30599 
  399000       399000    291.88574    93093.952    4298.4859     0.942689   -1009.4372    2252.4025    4746.3739     4086.502    4062.5817   -1175.1782    142.79661   -217.50383    291.88574 
  400000       400000    292.72575    93093.952    4737.6431     0.942689   -1012.1078    2259.1191    4669.1127    4587.7134    4956.1033   -673.35474    284.79207   -670.12304    292.72575 
  401000       401000    291.84837    93093.952    5706.2002     0.942689      -1042.8    2218.6221    5700.5954    5289.4141    6128.5912   -477.46441   -286.57911    297.87554    291.84837 
  402000       402000    291.16865    93093.952    4888.9982     0.942689   -1047.7951    2206.0311    4904.5807    4329.2425    5433.1713   -530.63041   -699.08666    436.40274    291.16865 
  403000       403000    295.11768    93093.952    5247.2838     0.942689   -1009.4568       2288.5    4627.0124     5723.201    5391.6379   -28.299616   -150.02907   -236.06085    295.11768 
  404000       404000    294.08871    93093.952    5378.4495     0.942689   -1011.7421     2274.716    4497.6473    6175.5919    5462.1092   -465.49588    605.91982   -38.234461    294.08871 
  405000       405000    291.56621    93093.952    4443.8114     0.942689   -1019.8119    2238.4571    3810.7849    4960.0787    4560.5705   -1458.5094   -590.85562   -663.82767    291.56621 
  406000       406000    294.51787    93093.952    5015.6856     0.942689   -1001.3936    2289.8604    5251.2421    4328.8435    5466.9712   -940.36054    353.47799   -436.05132    294.51787 
  407000       407000    282.78771    93093.952    4642.3308     0.942689   -961.80515    2198.3636    4334.5965    5424.1128     4168.283   -397.32839   -425.37518    -209.0295    282.78771 
  408000       408000    294.06619    93093.952    4764.3432     0.942689    -987.5316    2298.6748    4050.1118     5773.004    4469.9137   -1078.3719    96.796769    -692.3676    294.06619 
  409000       409000    284.22165    93093.952    5276.8113     0.942689     -957.516    2218.6771    5280.7337    5124.5329    5425.1674   -844.23213   -484.62389    363.69424    284.22165 
  410000       410000    294.88176    93093.952    4489.1718     0.942689   -1072.2185    2223.1019    4059.9499    5645.5172    3762.0481   -608.32414   -814.66222   -75.527536    294.88176 
  411000       411000    300.66644    93093.952     4747.391     0.942689   -981.69572    2378.2689    4601.1684     4731.531    4909.4734   -1041.7378    280.50022    371.12047    300.66644 
[...]
100080000   1.0008e+08    298.97923    93093.952    4205.2591     0.942689   -1050.0443    2291.0656    4121.7033    4261.2299     4232.844    322.38431   -50.204001    307.18323    299.00206 
100090000   1.0009e+08    296.68108    93093.952    5020.1336     0.942689   -1050.7021    2264.7259    3788.0636    6096.5993    5175.7379   -489.22489    -146.6287   -186.11344     296.6821 
100100000    1.001e+08    292.93778    93093.952     3916.462     0.942689   -1067.6251    2205.9713    3081.5757    4728.1275    3939.6828   -959.94362    125.74843   -350.89546    292.99415 
100110000   1.0011e+08    294.41443    93093.952    4620.4902     0.942689   -1111.2397    2178.8582    4371.2611    4251.1032    5239.1062   -44.067272   -578.01832   -341.80444    294.46059 
100120000   1.0012e+08     292.0378    93093.952    5144.1724     0.942689   -960.43785    2303.1012    5597.2094    5279.4254    4555.8822   -1205.1105  0.071273519   -735.05552    292.06484 
100130000   1.0013e+08     294.7789    93093.952    3724.1932     0.942689   -1057.1158    2237.0552    3750.1256    4484.7012    2937.7527   -1822.4415     20.65055   -106.97035    294.78178 
100140000   1.0014e+08    294.46227    93093.952    4714.9779     0.942689   -1049.1949    2241.4378    5081.7782    4429.4276     4633.728   -397.21274   -929.35394    303.77067     294.4821 
100150000   1.0015e+08    286.97077    93093.952    4600.7112     0.942689   -1042.0809    2164.8338    4237.9134    4992.0809    4572.1394   -750.32046   -5.4181171   -395.87013    286.97297 
100160000   1.0016e+08    301.13417    93093.952    4909.5692     0.942689   -1060.8441    2304.3473    4189.5935    5434.3391    5104.7749   -755.51356    650.57501     290.3643    301.13663 
100170000   1.0017e+08    300.99491    93093.952    5027.1805     0.942689    -1020.372    2343.2632    4041.6706    6015.4754    5024.3954   -626.45877    62.677598    75.867728    300.99723 
100180000   1.0018e+08    289.21259    93093.952    4259.3628     0.942689    -1096.923    2135.0442    3611.2562    5216.5674    3950.2648   -410.88135    487.80951   -176.95821    289.19749 
100190000   1.0019e+08    294.25057    93093.952    3957.5425     0.942689   -1066.1313    2222.1356    3738.6645    4650.7456    3483.2175   -712.64945    22.554984    -21.95371    294.26164 
100200000    1.002e+08    292.61481    93093.952    4656.1981     0.942689   -1098.9449    2171.0422    3453.9095    5252.8501    5261.8346   -1166.2549   -166.30486   -487.51032    292.68066 
100210000   1.0021e+08    291.93457    93093.952    4593.5861     0.942689   -1014.8913    2247.4942    3728.1544    4911.7483    5140.8555   -1274.1448   -298.57088   -354.50441    291.93054 
100220000   1.0022e+08    296.35688    93093.952    5662.4706     0.942689    -1003.041     2308.764    4300.4437    6815.9973    5870.9706   -807.48726   -88.208754   -8.7704083    296.35755 
100230000   1.0023e+08    293.50262    93093.952    4155.4687     0.942689   -1018.8629    2261.0456    2552.4416    5688.4013    4225.5631   -1120.2777   -228.51637   -136.27901    293.51444 
100240000   1.0024e+08    289.86055    93093.952    4609.1476     0.942689   -1149.1555    2090.0526    4895.1126    4422.8573    4509.4729        -1194   -364.76425   -482.50286    289.88055 
100250000   1.0025e+08    290.69752    93093.952    4304.1944     0.942689    -1023.192    2225.3693    3310.3109    5610.8512    3991.4212   -1091.9484    -579.6685    177.16505    290.71135 
100260000   1.0026e+08    291.52103    93093.952    4371.9017     0.942689   -1110.8184    2146.9457    3054.4401     5309.522    4751.7429   -880.42572   -299.21518    100.19981    291.53362 
100270000   1.0027e+08    295.30855    93093.952    4431.5453     0.942689   -1096.0288    2204.0611    3877.7036    4188.4538    5228.4786   -745.10393   -90.526986    37.331329    295.34476 
100280000   1.0028e+08    294.25217    93093.952    4378.6606     0.942689   -1022.0713    2266.2134    3683.6947     4632.777    4819.5102   -938.06573    570.41909   -540.50091     294.2676 
100290000   1.0029e+08    291.00775    93093.952    4398.4022     0.942689   -967.54286    2284.4853    4003.3965    4406.9459    4784.8641    -160.1656   -183.17934   -123.61952    291.05099 
100300000    1.003e+08    289.20194    93093.952    3260.8748     0.942689   -1016.2112     2215.637    2400.9125    4894.6169    2487.0951   -682.22951   -545.17929    102.33485    289.18286 
100310000   1.0031e+08    295.43947    93093.952    5091.5289     0.942689   -1086.9692    2214.5837    4793.0201     5624.654    4856.9127   -897.58543   -203.66531    238.58724    295.43403 
100320000   1.0032e+08    296.67697    93093.952    3767.7251     0.942689   -1089.8162    2225.5659    3019.2866    4352.1609    3931.7277    -323.2866   -369.51223   -361.19557    296.72652 
100330000   1.0033e+08    293.57139    93093.952    4659.0417     0.942689   -1050.6248    2230.0522    4281.7935     5102.913    4592.4185   -685.21202   -47.857494    147.78097     293.5884 
100340000   1.0034e+08     294.6485    93093.952    4209.7998     0.942689   -1020.5299    2272.1839    2288.7505    4840.5247    5500.1243   -620.53639   -354.09931    263.89413    294.71953 
100350000   1.0035e+08    293.71256    93093.952    4694.7262     0.942689   -982.18214    2300.0724     4517.773    4775.2248    4791.1806    -833.5502   -236.91225     518.1444    293.74012 
100360000   1.0036e+08    306.82485    93093.952    4139.8139     0.942689   -1033.7856    2394.9995     3279.899    4943.9969    4195.5459   -1625.2814    355.87252   -357.11514    306.87059 
100370000   1.0037e+08    298.76201    93093.952    5406.2128     0.942689   -957.30996    2381.3725    4387.5785    6782.3942    5048.6658   -141.05718   -140.08525    374.66984    298.75112 
100380000   1.0038e+08    295.14881    93093.952    5401.1379     0.942689    -1012.953    2285.3517      5006.46    5662.5963    5534.3575   -828.54964   -206.92663   -878.03794    295.19574 
100390000   1.0039e+08    288.59197    93093.952    5312.0728     0.942689   -1105.5677     2119.464    4935.6516    5914.4604    5086.1064    -86.35809    331.75262    67.122772    288.56866 
100400000    1.004e+08    292.11049    93093.952    4499.0789     0.942689   -1097.6534    2166.6979    3931.0412    5588.3439    3977.8517    -463.9209   -367.72676    156.08649    292.15567 
100410000   1.0041e+08    302.55551    93093.952     5277.016     0.942689   -994.31175    2386.7632    5196.7913    5275.5126     5358.744   -450.74497   -83.324216   -738.12041    302.58936 
100420000   1.0042e+08    291.24593    93093.952    4284.7295     0.942689    -970.0233    2284.6665    3458.8686    4126.6844    5268.6357   -543.32201   -107.63908   -224.34587    291.24308 
100430000   1.0043e+08     299.5778    93093.952    4383.5189     0.942689   -1009.5054    2338.2935    3445.9742    5351.4682    4353.1144   -626.83143   -164.22356   -374.27716    299.61295 
100440000   1.0044e+08    290.89156    93093.952    4915.5694     0.942689   -1062.9575    2187.7723    5015.4842    5094.8558    4636.3681   -829.24129    -221.2656     187.4839    290.90161 
100450000   1.0045e+08    293.61481    93093.952    5877.9868     0.942689   -1005.4573    2275.7049    5874.3862    5998.8249    5760.7492   -331.79018    23.669819   -498.41533    293.64944 
100460000   1.0046e+08    286.61335    93093.952    4678.6709     0.942689   -1046.9779    2155.9426    3925.6431    5927.7281    4182.6415   -683.12039    318.12166    9.2597967    286.63262 
100470000   1.0047e+08    297.81793    93093.952    4613.9621     0.942689   -1017.8028    2310.3295    3774.4661    5266.0422     4801.378   -478.08631   -851.27402   -417.99388     297.8405 
100480000   1.0048e+08     292.7248    93093.952     3644.743     0.942689   -1008.3712     2262.845    2780.3266    4783.2655    3370.6369   -745.77304   -365.19239   -1070.6821    292.68649 
100490000   1.0049e+08    299.41236    93093.952    4758.8858     0.942689   -1182.7718    2163.1783    4283.0746    5028.7267     4964.856   -620.57545    118.15121    276.29444    299.41635 
100500000    1.005e+08    293.02788    93093.952    4531.0911     0.942689   -922.97706    2351.6261    4087.7277    5280.5539    4224.9917   -442.17533    168.06819     260.0637    292.99652 
100510000   1.0051e+08    290.10665    93093.952    4767.3544     0.942689   -1029.2008    2212.7576     4011.883    5562.0582     4728.122    -857.8673    141.73872    -186.8764    290.11052 
100520000   1.0052e+08    295.90683    93093.952    4241.2563     0.942689   -1127.4597     2179.316    3241.3439    5072.5646    4409.8604   -789.37692   -454.58048   -547.00314    295.92688 
100530000   1.0053e+08     296.8553    93093.952    4660.8018     0.942689   -1127.5419    2189.8329    4832.0306    4876.6342    4273.7406   -277.14093    234.11751   -532.10801    296.87246 
100540000   1.0054e+08    298.28008    93093.952    4442.9355     0.942689   -1091.2882    2242.0087    4274.5089    4187.4194    4866.8782   -1329.6169    520.18771    667.28639    298.27984 
100550000   1.0055e+08    290.59075    93093.952    4838.2942     0.942689   -997.83819    2249.5299     5012.421    5019.1906     4483.271   -1479.2697    363.66155    418.98105    290.58828 
100560000   1.0056e+08    295.82474    93093.952    4024.6566     0.942689    -1049.103    2256.7553    3228.4961    4936.1514    3909.3223   -1705.0907    122.88567    740.49314    295.81958 
100570000   1.0057e+08    292.45923    93093.952    5154.7115     0.942689   -1083.8565     2184.392    4883.2006    6136.4995    4444.4343   -939.69888   -673.76118   -76.797752    292.48284 
100580000   1.0058e+08    293.27829    93093.952     4009.454     0.942689    -1071.248    2206.1535    3355.4178    4541.3558    4131.5885   -992.22447   -11.400694    278.42964    293.29545 
100590000   1.0059e+08     294.9123    93093.952    4515.7311     0.942689   -1058.3169    2237.3448    3192.5343    5079.6727    5274.9862     -1308.22    139.14479   -511.34506    294.92803 
100600000    1.006e+08    290.19794    93093.952    3971.6048     0.942689   -1083.7387    2159.2398    3904.4416    4712.9074    3297.4655   -1383.3149   -34.098396    422.27929    290.23216 
100610000   1.0061e+08    292.21604    93093.952    5194.9726     0.942689   -981.29458    2284.2363    4803.5212     6184.666    4596.7305   -17.288781    825.08294   -1198.6027    292.23134 
100620000   1.0062e+08     292.0236    93093.952    4638.7402     0.942689   -995.44824    2267.9321    4162.6832    4892.5407    4860.9966   -584.14552     577.1537    393.65228    292.02256 
100630000   1.0063e+08    291.15702    93093.952    4967.3361     0.942689   -1033.6905    2220.0058    4384.3245    5863.3073    4654.3766   -743.98122   -198.36381   -766.61801    291.19221 
100640000   1.0064e+08    290.98876    93093.952    5748.0002     0.942689   -1041.6539     2210.162    5691.1417    5883.6052    5669.2538    210.40836    74.444535    380.97043    290.97441 
100650000   1.0065e+08    287.99397    93093.952    3844.8073     0.942689   -1028.4861    2189.8629    2315.2736    4712.3151    4506.8332   -1023.3681    196.43948    772.41448    288.02022 
100660000   1.0066e+08    291.87447    93093.952    4611.0903     0.942689   -1033.6862    2228.0276    4941.0583    4442.0663    4450.1463   -1271.1467   -252.04783    388.65458    291.88541 
100670000   1.0067e+08    290.13555    93093.952    4336.7456     0.942689   -1102.0741    2140.2072    3541.6604    4468.5201    5000.0562   -1241.9213   -8.7263752   -332.04117    290.15442 
100680000   1.0068e+08    291.98518    93093.952    4716.8764     0.942689   -1083.6319     2179.319    5095.7722     5316.182     3738.675   -633.57082    292.68988    822.07246    292.06311 
100690000   1.0069e+08    288.86183    93093.952    3706.6323     0.942689   -1034.7008    2193.3465    2840.8114    4126.2976    4152.7879   -477.70343    531.78341    583.67804    288.91424 
100700000    1.007e+08    293.01546    93093.952    4130.2683     0.942689   -1065.3381    2209.1264    4186.6859    4088.7517    4115.3675   -1249.5872   -206.15935   -225.48131    293.01337 
100710000   1.0071e+08    291.27495    93093.952    5777.2692     0.942689   -1013.3622    2241.6519    5231.2373    6670.3578    5430.2125   -391.53367    332.64531   -159.53537    291.27921 
100720000   1.0072e+08    294.78565    93093.952    3987.1405     0.942689   -1018.3335    2275.9129    1748.7228    4939.2113    5273.4875   -1611.1689   -390.71781    251.82592     294.8213 
100730000   1.0073e+08    294.02625    93093.952    4868.3276     0.942689   -1049.8276    2235.9325    4514.5149    5735.5955    4354.8723   -1118.3651    558.72229   -184.36815     294.0532 
100740000   1.0074e+08    284.81337    93093.952    4637.9284     0.942689   -941.91895    2240.8867    4114.4837    5090.7922    4708.5094   -1346.6408   -310.99759   -351.45508     284.8456 
100750000   1.0075e+08    296.12564    93093.952    4166.8778     0.942689   -956.54456    2352.6763    2645.8243    5074.4599    4780.3492   -821.51277    335.27236    227.92835    296.13559 
100760000   1.0076e+08    296.22711    93093.952    4698.9142     0.942689   -1060.4674    2249.8873    4801.9245    4233.8329    5060.9853   -1446.0703   -19.749188   -48.504667    296.19185 
100770000   1.0077e+08    291.43039    93093.952    5397.8414     0.942689   -1041.8647    2214.8865    5321.0807    4539.6197    6332.8239   -543.88776    224.21232    696.78562    291.44335 
100780000   1.0078e+08    291.33653    93093.952    4543.7397     0.942689   -1010.6427    2245.0596    4174.1937    5435.9444    4021.0811   -693.24647    -549.2995    605.03459     291.3455 
100790000   1.0079e+08     296.8063    93093.952    5808.5878     0.942689   -1015.5579    2301.2694     5464.391    5999.3287    5962.0437   -550.52324    206.45964   -439.19658    296.82486 
100800000    1.008e+08    297.48856    93093.952    4180.9683     0.942689   -1048.9402    2275.5114    4477.2934    4309.6565     3755.955   -1383.0329    250.41561    82.658811    297.51838 
100810000   1.0081e+08    296.46355    93093.952    5545.0661     0.942689   -1005.0695    2307.9274    4318.0321    5916.6843     6400.482   -1142.4941    622.80171    500.90932    296.45735 
100820000   1.0082e+08    291.30256    93093.952    5033.9832     0.942689   -1033.4716    2221.8511    4181.8339    5196.4287    5723.6869   -600.27961     1036.409    675.87545    291.37729 
100830000   1.0083e+08    288.35871    93093.952    3367.5358     0.942689    -1035.618     2186.807    2782.9028    3634.9921    3684.7126   -1558.0328   -556.30264    345.07897    288.40431 
100840000   1.0084e+08     293.7695    93093.952    4027.1064     0.942689   -1083.2273    2199.6636    3207.7089    4667.7984     4205.812   -595.43565   -318.68324   -282.26981    293.80163 
100850000   1.0085e+08    296.13438    93093.952    3982.2688     0.942689   -1115.1054    2194.2132    3019.3038    5477.6044    3449.8982   -802.78217    639.95192     -444.958    296.16475 
100860000   1.0086e+08    296.43817    93093.952    4486.3758     0.942689   -1012.3895    2300.3239    3710.8271    5280.4415    4467.8587   -457.41374    255.83691   -164.64048    296.46602 
100870000   1.0087e+08    291.88295    93093.952    4198.4807     0.942689    -1107.632    2154.1766    4301.5993    5242.8607    3050.9822   -1017.2231   -145.09091   -268.51044    291.88137 
100880000   1.0088e+08    294.96997    93093.952    4170.2367     0.942689   -1100.9826    2195.3236    4402.0732     4568.821     3539.816   -861.97636    137.74455      379.614    295.01994 
100890000   1.0089e+08    295.28072    93093.952    3702.3826     0.942689    -963.1997    2336.5792    2708.7618    4086.3111    4312.0748   -691.52556   -867.38011   -161.04307    295.30257 
100900000    1.009e+08    291.32387    93093.952    4602.0945     0.942689   -1008.6743    2246.8865    3969.1667    4574.4362    5262.6808   -838.28889   -233.40817   -420.25354    291.33006 
100910000   1.0091e+08    285.96976    93093.952    4346.1862     0.942689   -1019.9345    2175.7938    3868.9345    5423.1685    3746.4555   -650.95568    -813.7937    246.83192    285.95839 
100920000   1.0092e+08    288.04175    93093.952    3628.9018     0.942689   -1Generated thermo.dat
Done!
stress
average  810.616
square average  657734
number of blocks  100
variance  2.52131026254207754533
pxx
average  4085.59
square average  1.66983*10^07
number of blocks  100
variance  7.90844605469367793676
pyy
average  4981.35
square average  2.48159*10^07
number of blocks  100
variance  4.53009657733695562765
pzz
average  4702.78
square average  2.21176*10^07
number of blocks  100
variance  3.82135002322477651361
xx
average  2180.71
square average  4.7555*10^06
number of blocks  100
variance  .19738034349954911353
yy
average  2184.61
square average  4.77252*10^06
number of blocks  100
variance  .09230926280715278250
zz
average  2183.17
square average  4.76622*10^06
number of blocks  100
variance  .33539379839227796908
xx
average  2479.39
square average  6.15362*10^06
number of blocks  100
variance  7.90267543304164807960
yy
average  3372.27
square average  1.13743*10^07
number of blocks  100
variance  4.57716844785070150688
zz
average  3094.77
square average  9.57903*10^06
number of blocks  100
variance  3.77974483265735810172
pressure, stress.strain, ktensor, virial are all concatenated
averages computed will all accumulated data until now
000.6132    2218.2698    2440.9482    4484.8891    3960.8681   -1140.2749   -47.801085   -373.22345    288.05756 
100930000   1.0093e+08    290.65382    93093.952    4027.9396     0.942689   -982.74373    2265.3293     3110.676     5029.617    3943.5259   -1056.3093    295.56985    435.53428    290.65957 
100940000   1.0094e+08    296.86797    93093.952    5492.7192     0.942689     -1023.08    2294.4364    5217.0222    5433.8221    5827.3134    66.737197     310.8526   -1056.8154    296.88737 
100950000   1.0095e+08     292.3053    93093.952    4801.5498     0.942689   -1048.4935    2218.0348    4533.2464    5226.3834    4645.0197   -1105.4286   -373.73538   -166.44119    292.31766 
100960000   1.0096e+08    296.88994    93093.952    4313.4626     0.942689    -925.0377    2392.7243    3461.8411    5279.9919    4198.5549   -1400.9842   -399.47294    103.50821    296.90207 
100970000   1.0097e+08    296.00085    93093.952    5495.0932     0.942689   -979.88392    2327.9424    4208.2771    6627.5285     5649.474   -1084.0928      121.102    78.655005    296.02611 
100980000   1.0098e+08    286.62495    93093.952    4186.4775     0.942689    -1024.035    2179.0152    3853.8873    3998.9463     4706.599   -1658.2546   -167.26562   -349.00164    286.65649 
100990000   1.0099e+08    292.04081    93093.952    4120.2574     0.942689   -1065.6451    2197.9276    3240.9001    4633.3097    4486.5623   -889.62998   -68.269215   -226.99134    292.05732 
101000000     1.01e+08    291.86178    93093.952    4479.0803     0.942689    -1068.949     2192.623     3774.985    4445.8263    5216.4294   -178.89578    251.39851    -92.61386    291.85217 
Loop time of 16294.7 on 48 procs for 50000000 steps with 3750 atoms

Pair  time (%) = 5749.52 (35.2846)
Bond  time (%) = 1063.45 (6.52635)
Neigh time (%) = 3091.92 (18.975)
Comm  time (%) = 4684.2 (28.7468)
Outpt time (%) = 0.456414 (0.002801)
Other time (%) = 1705.14 (10.4644)

Nlocal:    78.125 ave 90 max 68 min
Histogram: 6 6 3 7 5 6 4 4 3 4
Nghost:    1400.67 ave 1426 max 1369 min
Histogram: 4 1 4 5 5 7 8 4 5 5
Neighs:    6957.15 ave 8088 max 5894 min
Histogram: 4 4 5 6 6 8 3 4 4 4

Total # of neighbors = 333943
Ave neighs/atom = 89.0515
Ave special neighs/atom = 6.26667
Neighbor list builds = 5603881
Dangerous builds = 0
System init for write_restart ...

real	549m1.703s
user	0m0.060s
sys	0m0.059s
