ITEM: TIMESTEP
0
ITEM: NUMBER OF ATOMS
3125
ITEM: BOX BOUNDS xy xz yz pp pp pp
0.0000000000000000e+00 2.7000000000000000e+02 0.0000000000000000e+00
0.0000000000000000e+00 2.7000000000000000e+02 0.0000000000000000e+00
0.0000000000000000e+00 2.7000000000000000e+02 0.0000000000000000e+00
ITEM: ATOMS id type x y z
1 2 46.108 31.549 48.0177
2 1 46.0563 33.0632 47.8045
3 1 46.0045 34.5773 47.5913
4 1 45.9528 36.0915 47.3782
5 1 45.9011 37.6057 47.165
6 1 45.8494 39.1199 46.9518
7 1 45.7976 40.6341 46.7386
8 1 45.7459 42.1483 46.5254
9 1 45.6942 43.6625 46.3122
10 3 45.6424 45.1767 46.099
11 1 44.8776 44.9663 44.7907
12 1 44.1128 44.756 43.4823
13 1 43.348 44.5457 42.174
14 1 42.5832 44.3353 40.8657
15 1 41.8184 44.125 39.5573
16 2 41.0536 43.9147 38.249
17 1 45.5907 46.6909 45.8858
18 1 45.539 48.2051 45.6726
19 1 45.4872 49.7193 45.4594
20 1 45.4355 51.2334 45.2462
21 1 45.3838 52.7476 45.033
22 1 45.3321 54.2618 44.8198
23 1 45.2803 55.776 44.6067
24 1 45.2286 57.2902 44.3935
25 2 45.1769 58.8044 44.1803
26 2 87.7163 44.3839 58.6261
27 1 87.83 44.4789 57.1033
28 1 87.9437 44.5739 55.5804
29 1 88.0574 44.6689 54.0576
30 1 88.1711 44.7639 52.5348
31 1 88.2848 44.859 51.012
32 1 88.3986 44.954 49.4892
33 1 88.5123 45.049 47.9664
34 1 88.626 45.144 46.4436
35 3 88.7397 45.239 44.9208
36 1 90.2401 44.9545 45.0151
37 1 91.7404 44.6699 45.1094
38 1 93.2407 44.3853 45.2037
39 1 94.7411 44.1008 45.2979
40 1 96.2414 43.8162 45.3922
41 2 97.7418 43.5316 45.4865
42 1 88.8534 45.3341 43.398
43 1 88.9671 45.4291 41.8752
44 1 89.0809 45.5241 40.3524
45 1 89.1946 45.6191 38.8296
46 1 89.3083 45.7141 37.3068
47 1 89.422 45.8091 35.784
48 1 89.5357 45.9042 34.2612
49 1 89.6494 45.9992 32.7383
50 2 89.7632 46.0942 31.2155
51 2 134.437 41.8878 58.4633
52 1 134.638 42.203 56.9798
53 1 134.84 42.5182 55.4962
54 1 135.041 42.8334 54.0127
55 1 135.243 43.1485 52.5291
56 1 135.444 43.4637 51.0455
57 1 135.646 43.7789 49.562
58 1 135.847 44.0941 48.0784
59 1 136.049 44.4093 46.5949
60 3 136.25 44.7245 45.1113
61 1 134.762 45.0525 44.9788
62 1 133.273 45.3805 44.8463
63 1 131.785 45.7085 44.7138
64 1 130.296 46.0366 44.5813
65 1 128.808 46.3646 44.4488
66 2 127.319 46.6926 44.3163
67 1 136.452 45.0396 43.6277
68 1 136.653 45.3548 42.1442
69 1 136.855 45.67 40.6606
70 1 137.056 45.9852 39.1771
71 1 137.258 46.3004 37.6935
72 1 137.46 46.6155 36.2099
73 1 137.661 46.9307 34.7264
74 1 137.863 47.2459 33.2428
75 2 138.064 47.5611 31.7593
76 2 184.354 38.6219 56.4728
77 1 183.76 39.2412 55.2064
78 1 183.165 39.8605 53.9401
79 1 182.57 40.4798 52.6738
80 1 181.975 41.0991 51.4075
81 1 181.38 41.7183 50.1412
82 1 180.785 42.3376 48.8749
83 1 180.19 42.9569 47.6086
84 1 179.596 43.5762 46.3423
85 3 179.001 44.1955 45.076
86 1 180.19 45.1532 44.9855
87 1 181.38 46.111 44.8951
88 1 182.57 47.0688 44.8046
89 1 183.759 48.0266 44.7141
90 1 184.949 48.9844 44.6236
91 2 186.139 49.9421 44.5332
92 1 178.406 44.8147 43.8097
93 1 177.811 45.434 42.5434
94 1 177.216 46.0533 41.2771
95 1 176.621 46.6726 40.0108
96 1 176.026 47.2919 38.7445
97 1 175.431 47.9112 37.4782
98 1 174.837 48.5304 36.2119
99 1 174.242 49.1497 34.9456
100 2 173.647 49.769 33.6792
101 2 211.463 46.2897 42.481
102 1 212.954 46.022 42.692
103 1 214.446 45.7543 42.9029
104 1 215.937 45.4866 43.1138
105 1 217.429 45.2189 43.3248
106 1 218.921 44.9512 43.5357
107 1 220.412 44.6834 43.7466
108 1 221.904 44.4157 43.9575
109 1 223.395 44.148 44.1685
110 3 224.887 43.8803 44.3794
111 1 225.022 45.2133 45.1182
112 1 225.156 46.5463 45.857
113 1 225.291 47.8793 46.5958
114 1 225.426 49.2123 47.3346
115 1 225.561 50.5453 48.0734
116 2 225.695 51.8783 48.8122
117 1 226.378 43.6126 44.5903
118 1 227.87 43.3448 44.8013
119 1 229.361 43.0771 45.0122
120 1 230.853 42.8094 45.2231
121 1 232.345 42.5417 45.434
122 1 233.836 42.274 45.645
123 1 235.328 42.0062 45.8559
124 1 236.819 41.7385 46.0668
125 2 238.311 41.4708 46.2778
126 2 45.3765 94.825 32.0446
127 1 45.3005 94.1646 33.4226
128 1 45.2244 93.5042 34.8007
129 1 45.1484 92.8438 36.1787
130 1 45.0723 92.1834 37.5568
131 1 44.9963 91.523 38.9348
132 1 44.9202 90.8626 40.3129
133 1 44.8442 90.2023 41.6909
134 1 44.7682 89.5419 43.0689
135 3 44.6921 88.8815 44.447
136 1 45.0586 90.2131 45.1053
137 1 45.4252 91.5446 45.7637
138 1 45.7917 92.8762 46.422
139 1 46.1583 94.2078 47.0804
140 1 46.5248 95.5394 47.7388
141 2 46.8914 96.871 48.3971
142 1 44.6161 88.2211 45.825
143 1 44.54 87.5607 47.2031
144 1 44.464 86.9003 48.5811
145 1 44.3879 86.2399 49.9591
146 1 44.3119 85.5795 51.3372
147 1 44.2358 84.9191 52.7152
148 1 44.1598 84.2587 54.0933
149 1 44.0837 83.5983 55.4713
150 2 44.0077 82.9379 56.8494
151 2 78.8739 94.7083 51.7311
152 1 80.0512 94.0566 51.0029
153 1 81.2284 93.4049 50.2746
154 1 82.4056 92.7532 49.5464
155 1 83.5829 92.1015 48.8182
156 1 84.7601 91.4498 48.0899
157 1 85.9373 90.7981 47.3617
158 1 87.1146 90.1464 46.6334
159 1 88.2918 89.4948 45.9052
160 3 89.469 88.8431 45.177
161 1 90.1011 90.2204 44.9663
162 1 90.7333 91.5977 44.7556
163 1 91.3654 92.975 44.545
164 1 91.9975 94.3523 44.3343
165 1 92.6296 95.7296 44.1236
166 2 93.2617 97.1068 43.913
167 1 90.6462 88.1914 44.4487
168 1 91.8235 87.5397 43.7205
169 1 93.0007 86.888 42.9922
170 1 94.1779 86.2363 42.264
171 1 95.3552 85.5846 41.5358
172 1 96.5324 84.933 40.8075
173 1 97.7096 84.2813 40.0793
174 1 98.8869 83.6296 39.351
175 2 100.064 82.9779 38.6228
176 2 135.069 87.0873 31.4805
177 1 134.94 87.4801 32.9536
178 1 134.811 87.873 34.4267
179 1 134.681 88.2658 35.8997
180 1 134.552 88.6586 37.3728
181 1 134.423 89.0515 38.8458
182 1 134.294 89.4443 40.3189
183 1 134.165 89.8371 41.792
184 1 134.036 90.23 43.265
185 3 133.907 90.6228 44.7381
186 1 135.208 89.8814 45.0499
187 1 136.51 89.1399 45.3617
188 1 137.811 88.3985 45.6735
189 1 139.113 87.6571 45.9853
190 1 140.414 86.9156 46.2971
191 2 141.716 86.1742 46.609
192 1 133.778 91.0156 46.2111
193 1 133.648 91.4085 47.6842
194 1 133.519 91.8013 49.1573
195 1 133.39 92.1941 50.6303
196 1 133.261 92.587 52.1034
197 1 133.132 92.9798 53.5764
198 1 133.003 93.3726 55.0495
199 1 132.874 93.7655 56.5226
200 2 132.745 94.1583 57.9956
201 2 180.914 83.52 32.8164
202 1 180.944 84.1903 34.1915
203 1 180.975 84.8605 35.5665
204 1 181.006 85.5308 36.9415
205 1 181.036 86.201 38.3166
206 1 181.067 86.8712 39.6916
207 1 181.097 87.5415 41.0667
208 1 181.128 88.2117 42.4417
209 1 181.159 88.882 43.8168
210 3 181.189 89.5522 45.1918
211 1 179.773 90.0853 44.9635
212 1 178.358 90.6184 44.7351
213 1 176.942 91.1515 44.5068
214 1 175.526 91.6846 44.2785
215 1 174.11 92.2176 44.0501
216 2 172.694 92.7507 43.8218
217 1 181.22 90.2224 46.5668
218 1 181.251 90.8927 47.9419
219 1 181.281 91.5629 49.3169
220 1 181.312 92.2332 50.692
221 1 181.342 92.9034 52.067
222 1 181.373 93.5736 53.4421
223 1 181.404 94.2439 54.8171
224 1 181.434 94.9141 56.1921
225 2 181.465 95.5844 57.5672
226 2 222.756 76.5371 47.2318
227 1 222.957 78.0057 46.8524
228 1 223.157 79.4744 46.4731
229 1 223.357 80.943 46.0938
230 1 223.558 82.4116 45.7145
231 1 223.758 83.8802 45.3351
232 1 223.958 85.3489 44.9558
233 1 224.159 86.8175 44.5765
234 1 224.359 88.2861 44.1971
235 3 224.559 89.7548 43.8178
236 1 225.084 90.0467 45.2252
237 1 225.608 90.3387 46.6325
238 1 226.133 90.6306 48.0399
239 1 226.657 90.9226 49.4473
240 1 227.182 91.2146 50.8546
241 2 227.706 91.5065 52.262
242 1 224.76 91.2234 43.4385
243 1 224.96 92.692 43.0592
244 1 225.161 94.1606 42.6798
245 1 225.361 95.6293 42.3005
246 1 225.561 97.0979 41.9212
247 1 225.762 98.5665 41.5418
248 1 225.962 100.035 41.1625
249 1 226.162 101.504 40.7832
250 2 226.363 102.972 40.4039
251 2 41.922 148.199 42.2463
252 1 42.1712 146.703 42.4478
253 1 42.4204 145.207 42.6493
254 1 42.6697 143.711 42.8508
255 1 42.9189 142.215 43.0523
256 1 43.1681 140.718 43.2538
257 1 43.4174 139.222 43.4553
258 1 43.6666 137.726 43.6568
259 1 43.9158 136.23 43.8583
260 3 44.1651 134.734 44.0598
261 1 45.159 135.051 45.1791
262 1 46.153 135.367 46.2984
263 1 47.147 135.683 47.4177
264 1 48.1409 136 48.537
265 1 49.1349 136.316 49.6563
266 2 50.1289 136.632 50.7757
267 1 44.4143 133.238 44.2613
268 1 44.6635 131.742 44.4628
269 1 44.9128 130.246 44.6643
270 1 45.162 128.75 44.8658
271 1 45.4112 127.254 45.0673
272 1 45.6605 125.758 45.2688
273 1 45.9097 124.262 45.4702
274 1 46.1589 122.766 45.6717
275 2 46.4082 121.27 45.8732
276 2 100.823 139.109 37.4341
277 1 99.5439 138.684 38.1583
278 1 98.265 138.259 38.8825
279 1 96.986 137.834 39.6067
280 1 95.7071 137.409 40.3309
281 1 94.4281 136.984 41.0551
282 1 93.1492 136.559 41.7792
283 1 91.8702 136.133 42.5034
284 1 90.5913 135.708 43.2276
285 3 89.3123 135.283 43.9518
286 1 90.131 134.946 45.1997
287 1 90.9496 134.609 46.4475
288 1 91.7683 134.272 47.6953
289 1 92.5869 133.935 48.9431
290 1 93.4055 133.598 50.191
291 2 94.2242 133.26 51.4388
292 1 88.0334 134.858 44.676
293 1 86.7544 134.433 45.4002
294 1 85.4755 134.008 46.1244
295 1 84.1966 133.583 46.8486
296 1 82.9176 133.158 47.5728
297 1 81.6387 132.732 48.297
298 1 80.3597 132.307 49.0212
299 1 79.0808 131.882 49.7454
300 2 77.8018 131.457 50.4695
301 2 132.755 145.954 53.139
302 1 133.008 144.663 52.357
303 1 133.26 143.372 51.5751
304 1 133.513 142.082 50.7931
305 1 133.766 140.791 50.0111
306 1 134.018 139.501 49.2292
307 1 134.271 138.21 48.4472
308 1 134.523 136.919 47.6653
309 1 134.776 135.629 46.8833
310 3 135.028 134.338 46.1014
311 1 134.995 135.126 44.7902
312 1 134.961 135.914 43.4791
313 1 134.927 136.702 42.1679
314 1 134.893 137.489 40.8567
315 1 134.859 138.277 39.5456
316 2 134.825 139.065 38.2344
317 1 135.281 133.048 45.3194
318 1 135.534 131.757 44.5375
319 1 135.786 130.466 43.7555
320 1 136.039 129.176 42.9736
321 1 136.291 127.885 42.1916
322 1 136.544 126.595 41.4097
323 1 136.796 125.304 40.6277
324 1 137.049 124.013 39.8457
325 2 137.302 122.723 39.0638
326 2 167.932 140.423 49.0288
327 1 169.192 139.727 48.5094
328 1 170.452 139.031 47.9901
329 1 171.712 138.336 47.4708
330 1 172.972 137.64 46.9515
331 1 174.232 136.944 46.4321
332 1 175.491 136.248 45.9128
333 1 176.751 135.553 45.3935
334 1 178.011 134.857 44.8742
335 3 179.271 134.161 44.3549
336 1 180.139 135.16 45.1229
337 1 181.007 136.158 45.8909
338 1 181.875 137.157 46.6589
339 1 182.743 138.156 47.4269
340 1 183.611 139.155 48.195
341 2 184.48 140.153 48.963
342 1 180.531 133.465 43.8355
343 1 181.79 132.77 43.3162
344 1 183.05 132.074 42.7969
345 1 184.31 131.378 42.2776
346 1 185.57 130.682 41.7583
347 1 186.83 129.987 41.2389
348 1 188.089 129.291 40.7196
349 1 189.349 128.595 40.2003
350 2 190.609 127.899 39.681
351 2 220.853 124.702 36.7532
352 1 221.208 125.802 37.7551
353 1 221.563 126.902 38.757
354 1 221.919 128.003 39.7589
355 1 222.274 129.103 40.7609
356 1 222.629 130.204 41.7628
357 1 222.984 131.304 42.7647
358 1 223.34 132.404 43.7666
359 1 223.695 133.505 44.7685
360 3 224.05 134.605 45.7704
361 1 225.181 135.075 44.8532
362 1 226.312 135.545 43.9361
363 1 227.443 136.015 43.0189
364 1 228.573 136.485 42.1017
365 1 229.704 136.955 41.1845
366 2 230.835 137.426 40.2673
367 1 224.405 135.706 46.7724
368 1 224.761 136.806 47.7743
369 1 225.116 137.906 48.7762
370 1 225.471 139.007 49.7781
371 1 225.826 140.107 50.78
372 1 226.182 141.208 51.7819
373 1 226.537 142.308 52.7839
374 1 226.892 143.408 53.7858
375 2 227.247 144.509 54.7877
376 2 32.9197 185.359 49.0758
377 1 34.3157 184.834 48.7353
378 1 35.7117 184.308 48.3947
379 1 37.1077 183.782 48.0542
380 1 38.5036 183.257 47.7136
381 1 39.8996 182.731 47.3731
382 1 41.2956 182.206 47.0325
383 1 42.6916 181.68 46.6919
384 1 44.0876 181.155 46.3514
385 3 45.4835 180.629 46.0108
386 1 44.9079 179.88 44.8075
387 1 44.3323 179.131 43.6041
388 1 43.7566 178.382 42.4007
389 1 43.181 177.632 41.1973
390 1 42.6054 176.883 39.9939
391 2 42.0297 176.134 38.7905
392 1 46.8795 180.104 45.6703
393 1 48.2755 179.578 45.3297
394 1 49.6715 179.053 44.9892
395 1 51.0674 178.527 44.6486
396 1 52.4634 178.002 44.3081
397 1 53.8594 177.476 43.9675
398 1 55.2554 176.951 43.627
399 1 56.6514 176.425 43.2864
400 2 58.0473 175.9 42.9459
401 2 76.8823 184.339 45.6045
402 1 78.2846 183.728 45.5647
403 1 79.6868 183.117 45.525
404 1 81.089 182.506 45.4853
405 1 82.4912 181.895 45.4456
406 1 83.8934 181.285 45.4059
407 1 85.2956 180.674 45.3661
408 1 86.6978 180.063 45.3264
409 1 88.1 179.452 45.2867
410 3 89.5022 178.841 45.247
411 1 90.0948 180.221 44.953
412 1 90.6875 181.6 44.659
413 1 91.2802 182.98 44.3649
414 1 91.8729 184.359 44.0709
415 1 92.4655 185.739 43.7769
416 2 93.0582 187.119 43.4829
417 1 90.9044 178.23 45.2072
418 1 92.3066 177.619 45.1675
419 1 93.7088 177.009 45.1278
420 1 95.111 176.398 45.0881
421 1 96.5132 175.787 45.0484
422 1 97.9154 175.176 45.0086
423 1 99.3176 174.565 44.9689
424 1 100.72 173.954 44.9292
425 2 102.122 173.343 44.8895
426 2 124.128 176.71 37.1108
427 1 125.303 176.957 38.0595
428 1 126.477 177.204 39.0083
429 1 127.652 177.451 39.9571
430 1 128.826 177.698 40.9059
431 1 130.001 177.945 41.8547
432 1 131.176 178.192 42.8034
433 1 132.35 178.439 43.7522
434 1 133.525 178.686 44.701
435 3 134.7 178.933 45.6498
436 1 135.057 180.203 44.8762
437 1 135.415 181.474 44.1027
438 1 135.773 182.745 43.3291
439 1 136.13 184.015 42.5556
440 1 136.488 185.286 41.7821
441 2 136.846 186.557 41.0085
442 1 135.874 179.18 46.5986
443 1 137.049 179.427 47.5473
444 1 138.223 179.673 48.4961
445 1 139.398 179.92 49.4449
446 1 140.573 180.167 50.3937
447 1 141.747 180.414 51.3425
448 1 142.922 180.661 52.2912
449 1 144.097 180.908 53.24
450 2 145.271 181.155 54.1888
451 2 186.177 178.697 32.6949
452 1 185.37 178.853 33.9858
453 1 184.564 179.01 35.2766
454 1 183.758 179.166 36.5674
455 1 182.951 179.322 37.8582
456 1 182.145 179.478 39.1491
457 1 181.338 179.634 40.4399
458 1 180.532 179.79 41.7307
459 1 179.725 179.946 43.0215
460 3 178.919 180.102 44.3124
461 1 180.206 179.981 45.131
462 1 181.493 179.86 45.9496
463 1 182.78 179.739 46.7682
464 1 184.067 179.618 47.5868
465 1 185.354 179.497 48.4054
466 2 186.64 179.376 49.224
467 1 178.113 180.258 45.6032
468 1 177.306 180.414 46.894
469 1 176.5 180.57 48.1849
470 1 175.693 180.726 49.4757
471 1 174.887 180.882 50.7665
472 1 174.08 181.038 52.0573
473 1 173.274 181.194 53.3482
474 1 172.468 181.35 54.639
475 2 171.661 181.506 55.9298
476 2 225.818 193.805 44.8494
477 1 225.77 192.28 44.73
478 1 225.721 190.756 44.6106
479 1 225.672 189.231 44.4912
480 1 225.623 187.707 44.3718
481 1 225.574 186.182 44.2524
482 1 225.526 184.657 44.133
483 1 225.477 183.133 44.0136
484 1 225.428 181.608 43.8942
485 3 225.379 180.084 43.7748
486 1 224.928 179.984 45.2334
487 1 224.476 179.884 46.6919
488 1 224.025 179.784 48.1504
489 1 223.574 179.685 49.6089
490 1 223.123 179.585 51.0674
491 2 222.671 179.485 52.5259
492 1 225.33 178.559 43.6555
493 1 225.281 177.035 43.5361
494 1 225.233 175.51 43.4167
495 1 225.184 173.986 43.2973
496 1 225.135 172.461 43.1779
497 1 225.086 170.936 43.0585
498 1 225.037 169.412 42.9391
499 1 224.989 167.887 42.8197
500 2 224.94 166.363 42.7003
501 2 37.616 215.27 51.4858
502 1 38.5491 216.286 50.824
503 1 39.4821 217.302 50.1622
504 1 40.4152 218.318 49.5004
505 1 41.3483 219.334 48.8387
506 1 42.2814 220.35 48.1769
507 1 43.2145 221.366 47.5151
508 1 44.1476 222.382 46.8533
509 1 45.0807 223.398 46.1916
510 3 46.0138 224.414 45.5298
511 1 44.8069 225.112 44.8991
512 1 43.6 225.809 44.2684
513 1 42.3932 226.507 43.6377
514 1 41.1863 227.204 43.007
515 1 39.9794 227.902 42.3763
516 2 38.7726 228.599 41.7456
517 1 46.9469 225.43 44.868
518 1 47.8799 226.446 44.2062
519 1 48.813 227.462 43.5445
520 1 49.7461 228.478 42.8827
521 1 50.6792 229.494 42.2209
522 1 51.6123 230.51 41.5591
523 1 52.5454 231.526 40.8973
524 1 53.4785 232.542 40.2356
525 2 54.4116 233.558 39.5738
526 2 80.1237 229.33 36.3411
527 1 81.1476 228.726 37.3046
528 1 82.1715 228.123 38.268
529 1 83.1954 227.519 39.2315
530 1 84.2193 226.916 40.1949
531 1 85.2433 226.312 41.1584
532 1 86.2672 225.709 42.1219
533 1 87.2911 225.105 43.0853
534 1 88.315 224.501 44.0488
535 3 89.3389 223.898 45.0122
536 1 90.1259 225.21 44.9977
537 1 90.913 226.522 44.9831
538 1 91.7 227.834 44.9685
539 1 92.487 229.146 44.954
540 1 93.2741 230.458 44.9394
541 2 94.0611 231.77 44.9248
542 1 90.3628 223.294 45.9757
543 1 91.3867 222.691 46.9392
544 1 92.4106 222.087 47.9026
545 1 93.4345 221.484 48.8661
546 1 94.4584 220.88 49.8295
547 1 95.4823 220.277 50.793
548 1 96.5062 219.673 51.7565
549 1 97.5301 219.07 52.7199
550 2 98.5541 218.466 53.6834
551 2 129.823 226.216 32.2332
552 1 130.288 225.994 33.6742
553 1 130.752 225.772 35.1151
554 1 131.216 225.55 36.556
555 1 131.68 225.328 37.997
556 1 132.144 225.106 39.4379
557 1 132.608 224.884 40.8788
558 1 133.072 224.662 42.3198
559 1 133.536 224.44 43.7607
560 3 134 224.218 45.2017
561 1 135.19 225.149 44.9616
562 1 136.381 226.08 44.7215
563 1 137.571 227.01 44.4815
564 1 138.762 227.941 44.2414
565 1 139.952 228.871 44.0013
566 2 141.143 229.802 43.7613
567 1 134.464 223.996 46.6426
568 1 134.928 223.774 48.0835
569 1 135.392 223.553 49.5245
570 1 135.856 223.331 50.9654
571 1 136.32 223.109 52.4063
572 1 136.784 222.887 53.8473
573 1 137.248 222.665 55.2882
574 1 137.712 222.443 56.7291
575 2 138.177 222.221 58.1701
576 2 166.3 223.205 45.5896
577 1 167.827 223.262 45.5181
578 1 169.354 223.319 45.4466
579 1 170.882 223.375 45.3751
580 1 172.409 223.432 45.3037
581 1 173.936 223.489 45.2322
582 1 175.463 223.546 45.1607
583 1 176.991 223.603 45.0892
584 1 178.518 223.66 45.0177
585 3 180.045 223.717 44.9462
586 1 179.991 225.244 45.0102
587 1 179.937 226.772 45.0742
588 1 179.884 228.3 45.1382
589 1 179.83 229.828 45.2022
590 1 179.776 231.355 45.2663
591 2 179.722 232.883 45.3303
592 1 181.573 223.774 44.8748
593 1 183.1 223.83 44.8033
594 1 184.627 223.887 44.7318
595 1 186.154 223.944 44.6603
596 1 187.682 224.001 44.5888
597 1 189.209 224.058 44.5173
598 1 190.736 224.115 44.4459
599 1 192.263 224.172 44.3744
600 2 193.791 224.229 44.3029
601 2 211.238 223.676 44.647
602 1 212.768 223.68 44.6918
603 1 214.297 223.685 44.7366
604 1 215.826 223.689 44.7814
605 1 217.356 223.694 44.8262
606 1 218.885 223.698 44.871
607 1 220.414 223.702 44.9158
608 1 221.944 223.707 44.9606
609 1 223.473 223.711 45.0054
610 3 225.002 223.716 45.0502
611 1 225 225.245 44.9904
612 1 224.997 226.773 44.9307
613 1 224.994 228.302 44.871
614 1 224.992 229.831 44.8113
615 1 224.989 231.36 44.7516
616 2 224.986 232.889 44.6919
617 1 226.532 223.72 45.0949
618 1 228.061 223.725 45.1397
619 1 229.59 223.729 45.1845
620 1 231.12 223.734 45.2293
621 1 232.649 223.738 45.2741
622 1 234.178 223.742 45.3189
623 1 235.708 223.747 45.3637
624 1 237.237 223.751 45.4085
625 2 238.766 223.756 45.4533
626 2 36.5076 51.0761 99.0678
627 1 37.5183 50.3517 98.1763
628 1 38.5289 49.6274 97.2848
629 1 39.5396 48.903 96.3933
630 1 40.5503 48.1787 95.5019
631 1 41.561 47.4543 94.6104
632 1 42.5717 46.73 93.7189
633 1 43.5824 46.0056 92.8274
634 1 44.593 45.2813 91.936
635 3 45.6037 44.5569 91.0445
636 1 44.885 45.0844 89.8011
637 1 44.1663 45.6119 88.5576
638 1 43.4476 46.1394 87.3142
639 1 42.7289 46.6669 86.0708
640 1 42.0102 47.1944 84.8274
641 2 41.2915 47.7219 83.5839
642 1 46.6144 43.8325 90.153
643 1 47.6251 43.1082 89.2615
644 1 48.6358 42.3838 88.37
645 1 49.6464 41.6595 87.4786
646 1 50.6571 40.9351 86.5871
647 1 51.6678 40.2108 85.6956
648 1 52.6785 39.4864 84.8041
649 1 53.6892 38.7621 83.9127
650 2 54.6999 38.0377 83.0212
651 2 76.7498 42.4133 86.9988
652 1 78.2267 42.563 87.3695
653 1 79.7036 42.7126 87.7402
654 1 81.1804 42.8622 88.1109
655 1 82.6573 43.0118 88.4816
656 1 84.1341 43.1615 88.8523
657 1 85.611 43.3111 89.223
658 1 87.0878 43.4607 89.5937
659 1 88.5647 43.6103 89.9643
660 3 90.0415 43.7599 90.335
661 1 89.9921 45.2362 89.9362
662 1 89.9426 46.7125 89.5373
663 1 89.8932 48.1887 89.1385
664 1 89.8438 49.665 88.7396
665 1 89.7943 51.1413 88.3407
666 2 89.7449 52.6175 87.9419
667 1 91.5184 43.9096 90.7057
668 1 92.9952 44.0592 91.0764
669 1 94.4721 44.2088 91.4471
670 1 95.949 44.3584 91.8178
671 1 97.4258 44.508 92.1885
672 1 98.9027 44.6577 92.5592
673 1 100.38 44.8073 92.9299
674 1 101.856 44.9569 93.3006
675 2 103.333 45.1065 93.6713
676 2 121.895 40.6065 89.5403
677 1 123.383 40.9556 89.5906
678 1 124.872 41.3048 89.641
679 1 126.361 41.6539 89.6913
680 1 127.85 42.0031 89.7416
681 1 129.339 42.3522 89.7919
682 1 130.827 42.7014 89.8423
683 1 132.316 43.0505 89.8926
684 1 133.805 43.3997 89.9429
685 3 135.294 43.7488 89.9932
686 1 134.944 45.2383 90.0013
687 1 134.594 46.7278 90.0093
688 1 134.245 48.2173 90.0174
689 1 133.895 49.7068 90.0255
690 1 133.546 51.1963 90.0335
691 2 133.196 52.6858 90.0416
692 1 136.782 44.098 90.0436
693 1 138.271 44.4471 90.0939
694 1 139.76 44.7963 90.1442
695 1 141.249 45.1454 90.1945
696 1 142.738 45.4946 90.2449
697 1 144.226 45.8437 90.2952
698 1 145.715 46.1929 90.3455
699 1 147.204 46.542 90.3958
700 2 148.693 46.8912 90.4461
701 2 178.116 31.7746 86.422
702 1 178.374 33.19 86.9423
703 1 178.632 34.6054 87.4626
704 1 178.891 36.0208 87.983
705 1 179.149 37.4363 88.5033
706 1 179.407 38.8517 89.0236
707 1 179.666 40.2671 89.544
708 1 179.924 41.6826 90.0643
709 1 180.182 43.098 90.5846
710 3 180.441 44.5134 91.105
711 1 179.916 45.0927 89.7895
712 1 179.392 45.672 88.4741
713 1 178.867 46.2512 87.1587
714 1 178.343 46.8305 85.8433
715 1 177.818 47.4098 84.5278
716 2 177.294 47.989 83.2124
717 1 180.699 45.9288 91.6253
718 1 180.957 47.3443 92.1456
719 1 181.215 48.7597 92.666
720 1 181.474 50.1751 93.1863
721 1 181.732 51.5906 93.7066
722 1 181.99 53.006 94.227
723 1 182.249 54.4214 94.7473
724 1 182.507 55.8368 95.2676
725 2 182.765 57.2523 95.788
726 2 224.388 35.2557 99.7949
727 1 224.492 36.4254 98.814
728 1 224.595 37.5951 97.8332
729 1 224.699 38.7648 96.8524
730 1 224.803 39.9344 95.8716
731 1 224.906 41.1041 94.8907
732 1 225.01 42.2738 93.9099
733 1 225.114 43.4435 92.9291
734 1 225.217 44.6131 91.9483
735 3 225.321 45.7828 90.9675
736 1 224.939 44.8509 89.8157
737 1 224.557 43.919 88.664
738 1 224.175 42.987 87.5123
739 1 223.793 42.0551 86.3605
740 1 223.411 41.1232 85.2088
741 2 223.029 40.1913 84.0571
742 1 225.425 46.9525 89.9866
743 1 225.528 48.1222 89.0058
744 1 225.632 49.2918 88.025
745 1 225.735 50.4615 87.0442
746 1 225.839 51.6312 86.0633
747 1 225.943 52.8009 85.0825
748 1 226.046 53.9706 84.1017
749 1 226.15 55.1402 83.1209
750 2 226.254 56.3099 82.14
751 2 41.9722 101.328 97.3325
752 1 42.3731 100.026 96.6374
753 1 42.7739 98.723 95.9422
754 1 43.1748 97.4203 95.2471
755 1 43.5757 96.1176 94.552
756 1 43.9766 94.8149 93.8569
757 1 44.3774 93.5122 93.1617
758 1 44.7783 92.2095 92.4666
759 1 45.1792 90.9068 91.7715
760 3 45.5801 89.6041 91.0764
761 1 44.8895 90.0754 89.795
762 1 44.199 90.5467 88.5136
763 1 43.5084 91.0179 87.2322
764 1 42.8179 91.4892 85.9508
765 1 42.1273 91.9604 84.6694
766 2 41.4368 92.4317 83.388
767 1 45.9809 88.3015 90.3812
768 1 46.3818 86.9988 89.6861
769 1 46.7827 85.6961 88.991
770 1 47.1836 84.3934 88.2959
771 1 47.5844 83.0907 87.6007
772 1 47.9853 81.788 86.9056
773 1 48.3862 80.4853 86.2105
774 1 48.7871 79.1826 85.5154
775 2 49.1879 77.8799 84.8202
776 2 85.056 91.4173 77.1621
777 1 85.7313 91.2419 78.5237
778 1 86.4067 91.0666 79.8854
779 1 87.082 90.8913 81.247
780 1 87.7573 90.7159 82.6086
781 1 88.4326 90.5406 83.9703
782 1 89.108 90.3652 85.3319
783 1 89.7833 90.1899 86.6936
784 1 90.4586 90.0146 88.0552
785 3 91.134 89.8392 89.4169
786 1 89.784 90.0306 90.1111
787 1 88.4341 90.222 90.8052
788 1 87.0841 90.4134 91.4994
789 1 85.7341 90.6048 92.1936
790 1 84.3842 90.7962 92.8878
791 2 83.0342 90.9876 93.582
792 1 91.8093 89.6639 90.7785
793 1 92.4846 89.4885 92.1402
794 1 93.16 89.3132 93.5018
795 1 93.8353 89.1379 94.8635
796 1 94.5106 88.9625 96.2251
797 1 95.1859 88.7872 97.5868
798 1 95.8613 88.6118 98.9484
799 1 96.5366 88.4365 100.31
800 2 97.2119 88.2612 101.672
801 2 125.095 99.1651 86.974
802 1 126.164 98.1774 87.4461
803 1 127.233 97.1896 87.9181
804 1 128.302 96.2019 88.3902
805 1 129.37 95.2142 88.8622
806 1 130.439 94.2265 89.3343
807 1 131.508 93.2387 89.8063
808 1 132.577 92.251 90.2784
809 1 133.646 91.2633 90.7504
810 3 134.715 90.2756 91.2225
811 1 135.054 89.9475 89.7671
812 1 135.394 89.6195 88.3118
813 1 135.734 89.2914 86.8565
814 1 136.073 88.9634 85.4012
815 1 136.413 88.6354 83.9458
816 2 136.752 88.3073 82.4905
817 1 135.784 89.2878 91.6945
818 1 136.852 88.3001 92.1666
819 1 137.921 87.3124 92.6386
820 1 138.99 86.3246 93.1107
821 1 140.059 85.3369 93.5827
822 1 141.128 84.3492 94.0548
823 1 142.197 83.3615 94.5268
824 1 143.266 82.3737 94.9989
825 2 144.335 81.386 95.4709
826 2 168.877 97.0783 85.8233
827 1 170.025 96.1796 86.2884
828 1 171.172 95.2809 86.7535
829 1 172.32 94.3822 87.2187
830 1 173.467 93.4835 87.6838
831 1 174.615 92.5848 88.1489
832 1 175.763 91.6861 88.614
833 1 176.91 90.7874 89.0791
834 1 178.058 89.8887 89.5443
835 3 179.205 88.99 90.0094
836 1 180.151 90.1924 89.9982
837 1 181.098 91.3947 89.987
838 1 182.044 92.5971 89.9759
839 1 182.99 93.7994 89.9647
840 1 183.936 95.0017 89.9535
841 2 184.882 96.2041 89.9423
842 1 180.353 88.0913 90.4745
843 1 181.5 87.1926 90.9396
844 1 182.648 86.2939 91.4047
845 1 183.796 85.3952 91.8699
846 1 184.943 84.4965 92.335
847 1 186.091 83.5978 92.8001
848 1 187.238 82.6991 93.2652
849 1 188.386 81.8005 93.7303
850 2 189.533 80.9018 94.1955
851 2 214.602 93.2191 81.4686
852 1 215.679 92.7458 82.4467
853 1 216.756 92.2726 83.4249
854 1 217.833 91.7993 84.403
855 1 218.911 91.326 85.3811
856 1 219.988 90.8527 86.3593
857 1 221.065 90.3795 87.3374
858 1 222.142 89.9062 88.3155
859 1 223.219 89.4329 89.2936
860 3 224.296 88.9596 90.2718
861 1 225.134 90.1982 89.9482
862 1 225.972 91.4367 89.6247
863 1 226.81 92.6752 89.3011
864 1 227.648 93.9138 88.9776
865 1 228.486 95.1523 88.6541
866 2 229.324 96.3908 88.3305
867 1 225.373 88.4864 91.2499
868 1 226.45 88.0131 92.228
869 1 227.527 87.5398 93.2062
870 1 228.605 87.0665 94.1843
871 1 229.682 86.5933 95.1624
872 1 230.759 86.12 96.1406
873 1 231.836 85.6467 97.1187
874 1 232.913 85.1734 98.0968
875 2 233.99 84.7002 99.0749
876 2 40.6079 144.616 81.0837
877 1 41.2096 143.539 81.9885
878 1 41.8113 142.462 82.8932
879 1 42.413 141.385 83.7979
880 1 43.0147 140.308 84.7027
881 1 43.6164 139.23 85.6074
882 1 44.2181 138.153 86.5121
883 1 44.8199 137.076 87.4169
884 1 45.4216 135.999 88.3216
885 3 46.0233 134.922 89.2264
886 1 44.8051 135.015 90.1474
887 1 43.5869 135.108 91.0684
888 1 42.3687 135.201 91.9894
889 1 41.1505 135.294 92.9104
890 1 39.9323 135.387 93.8314
891 2 38.7141 135.48 94.7524
892 1 46.625 133.845 90.1311
893 1 47.2267 132.767 91.0358
894 1 47.8284 131.69 91.9406
895 1 48.4301 130.613 92.8453
896 1 49.0318 129.536 93.75
897 1 49.6335 128.459 94.6548
898 1 50.2353 127.382 95.5595
899 1 50.837 126.304 96.4643
900 2 51.4387 125.227 97.369
901 2 82.1318 146.177 87.8928
902 1 82.9138 144.87 88.0394
903 1 83.6958 143.563 88.1861
904 1 84.4778 142.256 88.3327
905 1 85.2598 140.949 88.4793
906 1 86.0418 139.642 88.626
907 1 86.8238 138.335 88.7726
908 1 87.6058 137.029 88.9192
909 1 88.3878 135.722 89.0659
910 3 89.1698 134.415 89.2125
911 1 90.1581 135.111 90.15
912 1 91.1464 135.808 91.0875
913 1 92.1348 136.505 92.025
914 1 93.1231 137.201 92.9625
915 1 94.1114 137.898 93.9
916 2 95.0997 138.594 94.8375
917 1 89.9518 133.108 89.3591
918 1 90.7338 131.801 89.5058
919 1 91.5158 130.494 89.6524
920 1 92.2978 129.187 89.799
921 1 93.0798 127.881 89.9457
922 1 93.8618 126.574 90.0923
923 1 94.6438 125.267 90.2389
924 1 95.4258 123.96 90.3856
925 2 96.2079 122.653 90.5322
926 2 121.233 133.7 89.7677
927 1 122.763 133.702 89.7963
928 1 124.293 133.703 89.8248
929 1 125.823 133.705 89.8534
930 1 127.352 133.707 89.882
931 1 128.882 133.708 89.9106
932 1 130.412 133.71 89.9392
933 1 131.941 133.712 89.9678
934 1 133.471 133.713 89.9964
935 3 135.001 133.715 90.025
936 1 135 135.245 89.9952
937 1 134.999 136.774 89.9655
938 1 134.998 138.304 89.9357
939 1 134.996 139.834 89.9059
940 1 134.995 141.364 89.8761
941 2 134.994 142.893 89.8464
942 1 136.531 133.717 90.0536
943 1 138.06 133.718 90.0822
944 1 139.59 133.72 90.1108
945 1 141.12 133.722 90.1394
946 1 142.65 133.723 90.168
947 1 144.179 133.725 90.1966
948 1 145.709 133.727 90.2252
949 1 147.239 133.728 90.2538
950 2 148.769 133.73 90.2824
951 2 179.112 143.394 100.955
952 1 179.338 142.427 99.7911
953 1 179.565 141.46 98.6274
954 1 179.792 140.493 97.4636
955 1 180.018 139.526 96.2999
956 1 180.245 138.559 95.1362
957 1 180.471 137.592 93.9724
958 1 180.698 136.625 92.8087
959 1 180.924 135.658 91.645
960 3 181.151 134.69 90.4812
961 1 179.781 135.059 89.9083
962 1 178.411 135.427 89.3354
963 1 177.041 135.796 88.7625
964 1 175.671 136.164 88.1896
965 1 174.301 136.533 87.6167
966 2 172.931 136.901 87.0438
967 1 181.377 133.723 89.3175
968 1 181.604 132.756 88.1538
969 1 181.83 131.789 86.9901
970 1 182.057 130.822 85.8263
971 1 182.284 129.855 84.6626
972 1 182.51 128.888 83.4989
973 1 182.737 127.921 82.3351
974 1 182.963 126.954 81.1714
975 2 183.19 125.986 80.0077
976 2 212.139 138.663 86.4739
977 1 213.507 138.135 86.9105
978 1 214.875 137.607 87.3471
979 1 216.243 137.079 87.7838
980 1 217.611 136.551 88.2204
981 1 218.979 136.023 88.657
982 1 220.347 135.495 89.0936
983 1 221.715 134.967 89.5302
984 1 223.083 134.439 89.9668
985 3 224.451 133.91 90.4035
986 1 225.105 135.208 89.9232
987 1 225.759 136.505 89.4429
988 1 226.413 137.802 88.9626
989 1 227.067 139.099 88.4822
990 1 227.721 140.396 88.0019
991 2 228.375 141.693 87.5216
992 1 225.819 133.382 90.8401
993 1 227.187 132.854 91.2767
994 1 228.555 132.326 91.7133
995 1 229.923 131.798 92.1499
996 1 231.291 131.27 92.5865
997 1 232.659 130.742 93.0231
998 1 234.027 130.214 93.4598
999 1 235.395 129.686 93.8964
1000 2 236.763 129.158 94.333
1001 2 52.674 168.994 86.6484
1002 1 51.8336 170.25 86.8827
1003 1 50.9931 171.507 87.1169
1004 1 50.1527 172.764 87.3511
1005 1 49.3122 174.021 87.5853