ITEM: TIMESTEP
0
ITEM: NUMBER OF ATOMS
3125
ITEM: BOX BOUNDS xy xz yz pp pp pp
0.0000000000000000e+00 2.7000000000000000e+02 0.0000000000000000e+00
0.0000000000000000e+00 2.7000000000000000e+02 0.0000000000000000e+00
0.0000000000000000e+00 2.7000000000000000e+02 0.0000000000000000e+00
ITEM: ATOMS id type x y z
1 2 46.5152 33.1894 48.5895
2 1 46.4634 34.7036 48.3763
3 1 46.4117 36.2177 48.1632
4 1 46.36 37.7319 47.95
5 1 46.3082 39.2461 47.7368
6 1 46.2565 40.7603 47.5236
7 1 46.2048 42.2745 47.3104
8 1 46.153 43.7887 47.0972
9 3 46.1013 45.3029 46.884
10 1 46.0496 46.8171 46.6708
11 1 45.9979 48.3313 46.4576
12 1 45.9461 49.8455 46.2444
13 1 45.8944 51.3596 46.0312
14 1 45.8427 52.8738 45.818
15 1 45.7909 54.388 45.6048
16 1 45.7392 55.9022 45.3917
17 2 45.6875 57.4164 45.1785
18 1 45.3365 45.0925 45.5757
19 1 44.5717 44.8822 44.2673
20 1 43.8069 44.6719 42.959
21 1 43.0421 44.4615 41.6507
22 1 42.2773 44.2512 40.3423
23 1 41.5125 44.0409 39.034
24 1 40.7477 43.8305 37.7257
25 2 39.9829 43.6202 36.4173
26 2 32.7734 42.7668 89.5592
27 1 34.3022 42.7706 89.6194
28 1 35.831 42.7744 89.6796
29 1 37.3598 42.7782 89.7398
30 1 38.8886 42.782 89.8
31 1 40.4174 42.7858 89.8602
32 1 41.9462 42.7896 89.9204
33 1 43.4751 42.7934 89.9806
34 3 45.0039 42.7972 90.0408
35 1 46.5327 42.801 90.101
36 1 48.0615 42.8048 90.1612
37 1 49.5903 42.8086 90.2214
38 1 51.1191 42.8124 90.2817
39 1 52.6479 42.8162 90.3419
40 1 54.1767 42.82 90.4021
41 1 55.7055 42.8238 90.4623
42 2 57.2344 42.8276 90.5225
43 1 45.0012 44.3269 90.0125
44 1 44.9985 45.8567 89.9841
45 1 44.9958 47.3864 89.9558
46 1 44.9931 48.9161 89.9274
47 1 44.9904 50.4459 89.899
48 1 44.9878 51.9756 89.8707
49 1 44.9851 53.5053 89.8423
50 2 44.9824 55.0351 89.8139
58 1 43.1986 43.0163 134.879
59 3 44.696 42.8528 134.611
60 1 46.1935 42.6894 134.343
61 1 47.6909 42.526 134.075
62 1 49.1883 42.3625 133.807
63 1 50.6858 42.1991 133.539
64 1 52.1832 42.0357 133.271
65 1 53.6807 41.8722 133.003
66 1 55.1781 41.7088 132.735
67 2 56.6756 41.5454 132.467
68 1 44.9071 44.3439 134.881
51 2 32.7164 44.1603 136.755
52 1 34.2139 43.9969 136.487
53 1 35.7113 43.8334 136.219
54 1 37.2088 43.67 135.951
55 1 38.7062 43.5066 135.683
56 1 40.2037 43.3431 135.415
57 1 41.7011 43.1797 135.147
100 2 35.2678 44.36 182.369
99 1 36.7514 44.4576 182.008
98 1 38.2349 44.5551 181.647
97 1 39.7185 44.6527 181.286
96 1 41.2021 44.7502 180.924
95 1 42.6856 44.8478 180.563
94 1 44.1692 44.9454 180.202
93 1 45.6528 45.0429 179.841
92 2 44.5154 42.148 167.904
91 1 44.843 42.5221 169.351
90 1 45.1706 42.8961 170.798
69 1 45.1182 45.835 135.151
70 1 45.3293 47.3261 135.421
71 1 45.5404 48.8172 135.692
72 1 45.7515 50.3083 135.962
73 1 45.9626 51.7994 136.232
74 1 46.1737 53.2904 136.502
75 2 46.3848 54.7815 136.772
76 2 49.7573 48.133 191.056
77 1 49.4297 47.7589 189.609
78 1 49.102 47.3849 188.162
79 1 48.7744 47.0108 186.715
80 1 48.4468 46.6367 185.268
81 1 48.1192 46.2627 183.821
82 1 47.7916 45.8886 182.374
83 1 47.464 45.5145 180.927
84 3 47.1363 45.1405 179.48
85 1 46.8087 44.7664 178.033
86 1 46.4811 44.3924 176.586
87 1 46.1535 44.0183 175.139
88 1 45.8259 43.6442 173.692
89 1 45.4982 43.2702 172.245
101 2 44.502 32.5841 225.519
102 1 44.3006 34.1008 225.526
103 1 44.0991 35.6175 225.532
104 1 43.8976 37.1341 225.538
105 1 43.6961 38.6508 225.544
106 1 43.4947 40.1674 225.55
107 1 43.2932 41.6841 225.556
108 1 43.0917 43.2008 225.562
109 3 42.8902 44.7174 225.568
110 1 42.6888 46.2341 225.575
111 1 42.4873 47.7508 225.581
112 1 42.2858 49.2674 225.587
113 1 42.0843 50.7841 225.593
114 1 41.8828 52.3008 225.599
115 1 41.6814 53.8174 225.605
116 1 41.4799 55.3341 225.611
117 2 41.2784 56.8508 225.617
118 1 44.3553 44.9137 225.174
119 1 45.8205 45.1099 224.779
120 1 47.2856 45.3061 224.384
121 1 48.7507 45.5023 223.989
122 1 50.2158 45.6986 223.595
123 1 51.6809 45.8948 223.2
124 1 53.1461 46.091 222.805
125 2 54.6112 46.2872 222.41
126 2 37.7116 89.7579 34.9257
127 1 38.6313 89.5196 36.1249
128 1 39.551 89.2812 37.3242
129 1 40.4707 89.0428 38.5234
130 1 41.3904 88.8044 39.7227
131 1 42.3101 88.566 40.9219
132 1 43.2298 88.3277 42.1212
133 1 44.1496 88.0893 43.3204
134 3 45.0693 87.8509 44.5197
135 1 45.989 87.6125 45.7189
136 1 46.9087 87.3742 46.9182
137 1 47.8284 87.1358 48.1174
138 1 48.7481 86.8974 49.3167
139 1 49.6679 86.659 50.5159
140 1 50.5876 86.4206 51.7152
141 1 51.5073 86.1823 52.9144
142 2 52.427 85.9439 54.1137
143 1 45.0212 89.3433 44.8532
144 1 44.9731 90.8358 45.1868
145 1 44.9249 92.3282 45.5203
146 1 44.8768 93.8206 45.8539
147 1 44.8287 95.313 46.1874
148 1 44.7806 96.8055 46.521
149 1 44.7325 98.2979 46.8545
150 2 44.6844 99.7903 47.1881
251 2 54.0847 127.519 49.0217
252 1 52.9128 128.475 48.7912
253 1 51.7409 129.431 48.5607
254 1 50.569 130.388 48.3301
255 1 49.3971 131.344 48.0996
256 1 48.2252 132.3 47.869
257 1 47.0534 133.257 47.6385
258 1 45.8815 134.213 47.408
269 1 45.1129 134.934 44.1532
270 1 45.3146 134.817 42.6411
271 1 45.5163 134.699 41.129
272 1 45.718 134.582 39.6169
273 1 45.9197 134.465 38.1048
274 1 46.1213 134.347 36.5927
275 2 46.323 134.23 35.0806
151 2 34.8767 86.6089 83.621
152 1 36.2576 86.9585 84.1796
153 1 37.6384 87.308 84.7382
154 1 39.0192 87.6576 85.2969
155 1 40.4 88.0071 85.8555
156 1 41.7808 88.3567 86.4141
157 1 43.1616 88.7062 86.9728
158 1 44.5424 89.0558 87.5314
159 3 45.9233 89.4053 88.09
160 1 47.3041 89.7549 88.6486
161 1 48.6849 90.1044 89.2073
162 1 50.0657 90.4539 89.7659
163 1 51.4465 90.8035 90.3245
164 1 52.8273 91.153 90.8832
165 1 54.2081 91.5026 91.4418
166 1 55.589 91.8521 92.0004
167 2 56.9698 92.2017 92.5591
168 1 45.2821 89.8183 89.4164
169 1 44.641 90.2313 90.7428
170 1 43.9998 90.6442 92.0691
171 1 43.3587 91.0572 93.3955
172 1 42.7175 91.4702 94.7219
173 1 42.0764 91.8832 96.0483
174 1 41.4352 92.2962 97.3747
175 2 40.7941 92.7091 98.701
176 2 40.5716 101.618 134.726
177 1 41.3427 100.304 134.859
178 1 42.1139 98.9887 134.991
194 1 44.323 89.5723 134.695
195 1 43.1142 88.8086 134.151
196 1 41.9053 88.0449 133.607
197 1 40.6964 87.2811 133.062
198 1 39.4875 86.5174 132.518
199 1 38.2787 85.7537 131.974
200 2 37.0698 84.99 131.429
301 2 42.1846 122.931 88.9552
302 1 42.746 124.329 89.2258
303 1 43.3074 125.726 89.4963
304 1 43.8688 127.123 89.7669
305 1 44.4302 128.521 90.0375
306 1 44.9916 129.918 90.308
307 1 45.5529 131.315 90.5786
308 1 46.1143 132.713 90.8492
309 3 46.6757 134.11 91.1198
318 1 45.512 134.728 90.3421
369 1 45.7699 134.676 134.809
370 1 47.1447 134.098 134.467
371 1 48.5194 133.52 134.125
372 1 49.8942 132.942 133.784
373 1 51.269 132.364 133.442
374 1 52.6438 131.786 133.1
375 2 54.0186 131.208 132.758
225 2 41.2913 98.5434 176.259
224 1 41.8567 97.241 176.829
223 1 42.422 95.9387 177.4
179 1 42.885 97.6739 135.123
180 1 43.6562 96.3591 135.255
181 1 44.4273 95.0442 135.387
182 1 45.1985 93.7294 135.519
183 1 45.9696 92.4146 135.652
184 3 46.7408 91.0998 135.784
185 1 47.5119 89.7849 135.916
186 1 48.2831 88.4701 136.048
187 1 49.0542 87.1553 136.18
188 1 49.8254 85.8405 136.312
189 1 50.5965 84.5257 136.445
190 1 51.3677 83.2108 136.577
191 1 52.1388 81.896 136.709
192 2 52.91 80.5812 136.841
193 1 45.5319 90.336 135.239
222 1 42.9874 94.6364 177.97
221 1 43.5527 93.334 178.54
220 1 44.1181 92.0317 179.11
219 1 44.6834 90.7293 179.681
218 1 45.2488 89.427 180.251
217 2 55.9242 89.5584 174.072
216 1 54.6605 89.3792 174.916
201 2 35.7039 86.6909 187.57
202 1 36.9677 86.8701 186.726
203 1 38.2315 87.0493 185.883
204 1 39.4953 87.2285 185.039
205 1 40.759 87.4077 184.196
206 1 42.0228 87.587 183.352
207 1 43.2866 87.7662 182.508
208 1 44.5503 87.9454 181.665
209 3 45.8141 88.1246 180.821
210 1 47.0779 88.3038 179.978
211 1 48.3416 88.4831 179.134
212 1 49.6054 88.6623 178.29
213 1 50.8692 88.8415 177.447
214 1 52.1329 89.0207 176.603
215 1 53.3967 89.1999 175.76
361 1 43.3688 134.943 138.399
362 1 43.543 134.498 139.853
363 1 43.7172 134.053 141.306
364 1 43.8914 133.608 142.759
365 1 44.0656 133.163 144.213
366 1 44.2399 132.718 145.666
367 2 44.4141 132.273 147.12
425 2 36.3475 133.422 175.165
424 1 37.6664 133.662 175.902
423 1 38.9854 133.903 176.639
422 1 40.3044 134.144 177.376
421 1 41.6234 134.384 178.113
420 1 42.9424 134.625 178.85
419 1 44.2614 134.865 179.587
408 1 46.3686 134.566 182.266
407 1 45.8378 133.786 183.47
406 1 45.307 133.006 184.675
405 1 44.7762 132.226 185.879
404 1 44.2454 131.446 187.083
403 1 43.7146 130.666 188.288
402 1 43.1838 129.886 189.492
401 2 42.653 129.106 190.697
226 2 32.7576 87.8143 224.864
227 1 34.2876 87.8122 224.874
228 1 35.8175 87.8101 224.885
229 1 37.3475 87.808 224.895
230 1 38.8775 87.8059 224.905
231 1 40.4074 87.8038 224.916
232 1 41.9374 87.8017 224.926
233 1 43.4674 87.7996 224.936
234 3 44.9973 87.7974 224.947
235 1 46.5273 87.7953 224.957
236 1 48.0573 87.7932 224.968
237 1 49.5872 87.7911 224.978
238 1 51.1172 87.789 224.988
239 1 52.6471 87.7869 224.999
240 1 54.1771 87.7848 225.009
241 1 55.7071 87.7827 225.019
242 2 57.237 87.7806 225.03
243 1 44.9992 89.327 224.984
244 1 45.001 90.8565 225.021
245 1 45.0029 92.3861 225.058
246 1 45.0048 93.9157 225.095
247 1 45.0066 95.4452 225.132
248 1 45.0085 96.9748 225.169
249 1 45.0103 98.5043 225.205
250 2 45.0122 100.034 225.242
451 2 36.4206 133.007 216.22
452 1 37.6449 133.123 217.13
453 1 38.8692 133.239 218.04
454 1 40.0935 133.355 218.951
455 1 41.3178 133.471 219.861
456 1 42.542 133.587 220.771
457 1 43.7663 133.703 221.681
458 1 44.9906 133.819 222.592
459 3 46.2149 133.935 223.502
460 1 47.4392 134.052 224.412
461 1 48.6635 134.168 225.322
462 1 49.8878 134.284 226.232
463 1 51.112 134.4 227.143
464 1 52.3363 134.516 228.053
465 1 53.5606 134.632 228.963
466 1 54.7849 134.748 229.873
467 2 56.0092 134.864 230.784
468 1 45.3712 134.675 224.542
300 2 44.6646 188.545 39.7463
299 1 44.7157 187.243 40.5472
298 1 44.7668 185.94 41.348
297 1 44.818 184.637 42.1489
296 1 44.8691 183.335 42.9498
295 1 44.9202 182.032 43.7506
294 1 44.9714 180.729 44.5515
293 1 45.0225 179.427 45.3524
259 3 44.7096 135.169 47.1774
260 1 43.5377 136.125 46.9469
261 1 42.3658 137.082 46.7163
262 1 41.1939 138.038 46.4858
263 1 40.022 138.994 46.2553
264 1 38.8501 139.95 46.0247
265 1 37.6782 140.907 45.7942
266 1 36.5063 141.863 45.5637
267 2 35.3345 142.819 45.3331
268 1 44.9113 135.052 45.6653
292 2 32.8554 177.46 45.8524
291 1 34.3827 177.543 45.89
290 1 35.91 177.626 45.9276
289 1 37.4372 177.709 45.9652
288 1 38.9645 177.792 46.0028
287 1 40.4918 177.875 46.0404
286 1 42.0191 177.958 46.078
276 2 57.2919 178.789 46.4541
277 1 55.7646 178.706 46.4165
278 1 54.2373 178.623 46.3789
279 1 52.71 178.54 46.3413
280 1 51.1828 178.456 46.3037
281 1 49.6555 178.373 46.2661
282 1 48.1282 178.29 46.2285
283 1 46.6009 178.207 46.1909
284 3 45.0736 178.124 46.1533
285 1 43.5464 178.041 46.1156
350 2 45.6574 189.413 86.5783
349 1 45.5572 187.978 87.0999
348 1 45.457 186.543 87.6215
347 1 45.3567 185.108 88.1431
346 1 45.2565 183.673 88.6647
345 1 45.1563 182.238 89.1863
344 1 45.0561 180.804 89.7079
343 1 44.9559 179.369 90.2295
342 2 56.1132 175.617 86.5416
310 1 47.2371 135.507 91.3903
311 1 47.7985 136.905 91.6609
312 1 48.3599 138.302 91.9315
313 1 48.9213 139.699 92.202
314 1 49.4827 141.097 92.4726
315 1 50.044 142.494 92.7432
316 1 50.6054 143.891 93.0137
317 2 51.1668 145.289 93.2843
341 1 54.706 175.907 87.0678
319 1 44.3483 135.346 89.5645
320 1 43.1846 135.964 88.7869
321 1 42.0209 136.582 88.0093
322 1 40.8572 137.2 87.2317
323 1 39.6935 137.818 86.4541
324 1 38.5299 138.437 85.6765
325 2 37.3662 139.055 84.8989
326 2 33.5982 180.25 94.9606
327 1 35.0054 179.961 94.4344
328 1 36.4125 179.671 93.9082
329 1 37.8197 179.382 93.382
330 1 39.2269 179.092 92.8558
331 1 40.6341 178.802 92.3296
332 1 42.0413 178.513 91.8035
333 1 43.4485 178.223 91.2773
334 3 44.8557 177.934 90.7511
335 1 46.2629 177.644 90.2249
336 1 47.6701 177.355 89.6987
337 1 49.0773 177.065 89.1725
338 1 50.4845 176.776 88.6464
339 1 51.8917 176.486 88.1202
340 1 53.2989 176.196 87.594
351 2 41.6265 139.391 123.864
352 1 41.8008 138.947 125.318
353 1 41.975 138.502 126.771
354 1 42.1492 138.057 128.225
355 1 42.3234 137.612 129.678
356 1 42.4976 137.167 131.132
357 1 42.6719 136.722 132.585
358 1 42.8461 136.277 134.039
376 2 47.2646 168.168 131.911
377 1 47.1556 169.684 132.087
378 1 47.0465 171.2 132.263
379 1 46.9375 172.716 132.439
380 1 46.8284 174.231 132.615
381 1 46.7194 175.747 132.791
382 1 46.6103 177.263 132.966
383 1 46.5013 178.779 133.142
384 3 46.3922 180.295 133.318
385 1 46.2832 181.811 133.494
386 1 46.1741 183.327 133.67
387 1 46.0651 184.843 133.846
388 1 45.956 186.359 134.022
389 1 45.847 187.875 134.197
390 1 45.7379 189.391 134.373
391 1 45.6289 190.907 134.549
392 2 45.5198 192.423 134.725
393 1 45.4254 180.09 134.486
450 2 42.8411 189.341 177.031
449 1 43.1702 187.917 177.483
448 1 43.4993 186.493 177.936
447 1 43.8284 185.069 178.389
446 1 44.1575 183.645 178.841
445 1 44.4866 182.221 179.294
444 1 44.8157 180.797 179.747
443 1 45.1448 179.373 180.199
359 3 43.0203 135.832 135.492
360 1 43.1945 135.387 136.946
442 2 56.729 181.561 183.83
441 1 55.3221 181.109 183.432
440 1 53.9152 180.658 183.035
439 1 52.5084 180.207 182.638
438 1 51.1015 179.755 182.241
437 1 49.6946 179.304 181.843
436 1 48.2877 178.852 181.446
368 1 44.3951 135.254 135.15
435 1 46.8808 178.401 181.049
434 3 45.4739 177.949 180.652
433 1 44.067 177.498 180.255
432 1 42.6601 177.047 179.857
431 1 41.2532 176.595 179.46
430 1 39.8463 176.144 179.063
429 1 38.4394 175.692 178.666
428 1 37.0326 175.241 178.268
427 1 35.6257 174.79 177.871
426 2 34.2188 174.338 177.474
418 1 45.5804 135.106 180.324
417 2 51.1456 141.587 171.426
416 1 50.6149 140.807 172.631
415 1 50.0841 140.027 173.835
414 1 49.5533 139.247 175.039
413 1 49.0225 138.467 176.244
412 1 48.4917 137.687 177.448
411 1 47.9609 136.907 178.653
410 1 47.4301 136.127 179.857
409 3 46.8993 135.346 181.061
400 2 38.6577 178.655 142.662
399 1 39.6245 178.86 141.494
398 1 40.5913 179.065 140.326
397 1 41.5582 179.27 139.158
396 1 42.525 179.475 137.99
394 1 44.4586 179.885 135.654
395 1 43.4918 179.68 136.822
500 2 41.0514 174.353 232.298
499 1 41.6533 175.214 231.185
498 1 42.2553 176.075 230.073
497 1 42.8572 176.935 228.96
496 1 43.4591 177.796 227.848
495 1 44.061 178.657 226.735
494 1 44.6629 179.518 225.623
493 1 45.2648 180.379 224.511
492 2 41.3171 191.285 228.71
491 1 41.8858 190.029 228.046
490 1 42.4545 188.774 227.382
489 1 43.0232 187.518 226.718
488 1 43.5919 186.262 226.054
487 1 44.1606 185.007 225.39
486 1 44.7293 183.751 224.726
485 1 45.298 182.495 224.062
484 3 45.8668 181.24 223.398
483 1 46.4355 179.984 222.734
469 1 44.5275 135.414 225.583
470 1 43.6839 136.153 226.623
471 1 42.8402 136.893 227.664
472 1 41.9965 137.632 228.704
473 1 41.1528 138.371 229.744
474 1 40.3091 139.111 230.785
475 2 39.4655 139.85 231.825
476 2 50.4165 171.194 218.087
477 1 49.8478 172.45 218.751
478 1 49.279 173.706 219.414
479 1 48.7103 174.961 220.078
480 1 48.1416 176.217 220.742
481 1 47.5729 177.473 221.406
482 1 47.0042 178.728 222.07
501 2 36.0056 220.721 37.5525
502 1 37.226 221.003 38.431
503 1 38.4465 221.286 39.3095
504 1 39.667 221.568 40.188
505 1 40.8874 221.85 41.0665
506 1 42.1079 222.132 41.945
507 1 43.3283 222.414 42.8235
508 1 44.5488 222.696 43.702
509 3 45.7693 222.979 44.5805
510 1 46.9897 223.261 45.459
511 1 48.2102 223.543 46.3376
512 1 49.4306 223.825 47.2161
513 1 50.6511 224.107 48.0946
514 1 51.8716 224.389 48.9731
515 1 53.092 224.671 49.8516
516 1 54.3125 224.954 50.7301
517 2 55.5329 225.236 51.6086
518 1 45.2351 224.382 44.8718
519 1 44.7008 225.786 45.1631
520 1 44.1666 227.19 45.4544
521 1 43.6324 228.594 45.7457
522 1 43.0982 229.998 46.037
523 1 42.564 231.401 46.3283
524 1 42.0298 232.805 46.6196
525 2 41.4956 234.209 46.9109
526 2 33.0936 227.059 92.9445
527 1 34.4883 226.543 92.5849
528 1 35.883 226.027 92.2253
529 1 37.2776 225.51 91.8657
530 1 38.6723 224.994 91.5062
531 1 40.067 224.478 91.1466
532 1 41.4616 223.962 90.787
533 1 42.8563 223.445 90.4274
534 3 44.251 222.929 90.0678
535 1 45.6456 222.413 89.7083
536 1 47.0403 221.897 89.3487
537 1 48.435 221.38 88.9891
538 1 49.8296 220.864 88.6295
539 1 51.2243 220.348 88.2699
540 1 52.6189 219.832 87.9103
541 1 54.0136 219.315 87.5508
542 2 55.4083 218.799 87.1912
543 1 44.7711 224.367 90.0207
544 1 45.2913 225.805 89.9736
545 1 45.8115 227.243 89.9265
546 1 46.3316 228.682 89.8794
547 1 46.8518 230.12 89.8323
548 1 47.372 231.558 89.7852
549 1 47.8922 232.996 89.7381
550 2 48.4123 234.434 89.691
559 3 46.9965 224.192 134.536
560 1 47.3633 225.501 133.834
561 1 47.7301 226.81 133.132
562 1 48.0969 228.118 132.43
563 1 48.4636 229.427 131.727
564 1 48.8304 230.736 131.025
565 1 49.1972 232.045 130.323
566 1 49.564 233.354 129.62
567 2 49.9308 234.663 128.918
568 1 45.61 224.753 134.858
551 2 44.0623 213.721 140.155
552 1 44.429 215.03 139.453
553 1 44.7958 216.339 138.75
554 1 45.1626 217.647 138.048
555 1 45.5294 218.956 137.346
556 1 45.8962 220.265 136.643
557 1 46.2629 221.574 135.941
558 1 46.6297 222.883 135.239
600 2 37.4605 231.064 182.668
599 1 38.6098 230.14 182.261
598 1 39.7591 229.216 181.854
597 1 40.9085 228.291 181.448
596 1 42.0578 227.367 181.041
595 1 43.2071 226.442 180.634
594 1 44.3564 225.518 180.228
593 1 45.5057 224.593 179.821
592 2 46.8098 228.758 168.283
591 1 46.7904 228.121 169.675
569 1 44.2236 225.314 135.18
570 1 42.8371 225.876 135.502
571 1 41.4506 226.437 135.824
572 1 40.0642 226.998 136.146
573 1 38.6777 227.559 136.468
574 1 37.2913 228.121 136.79
575 2 35.9048 228.682 137.112
576 2 46.5002 218.58 190.545
577 1 46.5196 219.216 189.154
578 1 46.5389 219.852 187.763
579 1 46.5583 220.488 186.371
580 1 46.5776 221.124 184.98
581 1 46.597 221.761 183.589
582 1 46.6163 222.397 182.197
583 1 46.6357 223.033 180.806
584 3 46.655 223.669 179.414
585 1 46.6744 224.305 178.023
586 1 46.6937 224.941 176.632
587 1 46.713 225.577 175.24
588 1 46.7324 226.213 173.849
589 1 46.7517 226.849 172.458
590 1 46.7711 227.485 171.066
601 2 32.6457 223.955 225.976
602 1 34.1714 223.946 226.09
603 1 35.697 223.937 226.205
604 1 37.2227 223.928 226.32
605 1 38.7484 223.919 226.434
606 1 40.274 223.91 226.549
607 1 41.7997 223.901 226.664
608 1 43.3254 223.892 226.778
609 3 44.851 223.883 226.893
610 1 46.3767 223.874 227.008
611 1 47.9024 223.865 227.122
612 1 49.4281 223.856 227.237
613 1 50.9537 223.847 227.352
614 1 52.4794 223.837 227.467
615 1 54.0051 223.828 227.581
616 1 55.5307 223.819 227.696
617 2 57.0564 223.81 227.811
618 1 44.9545 224.659 225.578
619 1 45.0579 225.434 224.264
620 1 45.1614 226.21 222.949
621 1 45.2648 226.986 221.635
622 1 45.3682 227.762 220.32
623 1 45.4717 228.538 219.005
624 1 45.5751 229.314 217.691
625 2 45.6786 230.09 216.376
626 2 80.4834 37.3688 47.4228
627 1 81.7953 38.0788 47.0829
628 1 83.1073 38.7888 46.7431
629 1 84.4193 39.4988 46.4032
630 1 85.7313 40.2088 46.0633
631 1 87.0433 40.9187 45.7235
632 1 88.3553 41.6287 45.3836
633 1 89.6673 42.3387 45.0438
634 3 90.9792 43.0487 44.7039
635 1 92.2912 43.7587 44.364
636 1 93.6032 44.4687 44.0242
637 1 94.9152 45.1787 43.6843
638 1 96.2272 45.8887 43.3444
639 1 97.5392 46.5987 43.0046
640 1 98.8512 47.3087 42.6647
641 1 100.163 48.0187 42.3248
642 2 101.475 48.7286 41.985
643 1 90.2992 44.4038 44.9095
644 1 89.6192 45.7588 45.1152
645 1 88.9392 47.1139 45.3208
646 1 88.2591 48.4689 45.5264
647 1 87.5791 49.824 45.7321
648 1 86.8991 51.1791 45.9377
649 1 86.219 52.5341 46.1433
650 2 85.539 53.8892 46.349
1261 1 134.502 45.9097 41.3747
1262 1 133.561 45.7673 40.1768
1263 1 132.62 45.6249 38.9788
1264 1 131.679 45.4825 37.7808
1265 1 130.738 45.3401 36.5829
1266 1 129.797 45.1977 35.3849
1267 2 128.856 45.0553 34.1869
1269 1 134.462 44.5355 45.4781
1270 1 133.5 43.706 46.3318
1271 1 132.539 42.8766 47.1854
1272 1 131.578 42.0471 48.0391
1273 1 130.616 41.2176 48.8928
1274 1 129.655 40.3882 49.7465
1275 2 128.694 39.5587 50.6002
651 2 85.1932 41.44 100.904
652 1 85.9658 42.013 99.7139
653 1 86.7383 42.5859 98.5241
654 1 87.5109 43.1589 97.3343
655 1 88.2835 43.7319 96.1444
656 1 89.0561 44.3049 94.9546
657 1 89.8287 44.8779 93.7648
658 1 90.6012 45.4508 92.5749
659 3 91.3738 46.0238 91.3851
660 1 92.1464 46.5968 90.1953
661 1 92.919 47.1698 89.0054
662 1 93.6916 47.7428 87.8156
663 1 94.4642 48.3157 86.6257
664 1 95.2367 48.8887 85.4359
665 1 96.0093 49.4617 84.2461
666 1 96.7819 50.0347 83.0562
667 2 97.5545 50.6077 81.8664
668 1 90.4198 45.3128 90.4232
669 1 89.4657 44.6018 89.4614
670 1 88.5117 43.8909 88.4995
671 1 87.5576 43.1799 87.5376
672 1 86.6036 42.4689 86.5758
673 1 85.6495 41.7579 85.6139
674 1 84.6955 41.0469 84.652
675 2 83.7414 40.3359 83.6902
694 1 90.3703 45.589 134.5
695 1 91.0315 46.6407 133.607
696 1 91.6927 47.6924 132.714
697 1 92.3538 48.7441 131.821
698 1 93.015 49.7958 130.927
699 1 93.6762 50.8475 130.034
700 2 94.3374 51.8992 129.141
1309 3 134.001 43.5778 88.646
1310 1 132.641 44.1572 89.0409
1311 1 131.281 44.7366 89.4358
1312 1 129.921 45.316 89.8307
1313 1 128.561 45.8954 90.2256
1314 1 127.202 46.4748 90.6205
1315 1 125.842 47.0542 91.0154
1316 1 124.482 47.6336 91.4103
1317 2 123.122 48.213 91.8052
1318 1 134.695 44.5654 89.5863
1369 1 134.187 44.9333 134.737
1370 1 132.736 44.8141 134.268
1371 1 131.284 44.6949 133.799
1372 1 129.833 44.5757 133.33
1373 1 128.382 44.4565 132.861
1374 1 126.93 44.3373 132.392
1375 2 125.479 44.2181 131.922
676 2 79.1404 50.5974 137.326
677 1 80.3789 49.7084 137.196
678 1 81.6173 48.8194 137.066
679 1 82.8557 47.9305 136.936
680 1 84.0942 47.0415 136.806
681 1 85.3326 46.1525 136.676
682 1 86.571 45.2635 136.546
683 1 87.8094 44.3745 136.416
684 3 89.0479 43.4856 136.286
685 1 90.2863 42.5966 136.156
686 1 91.5247 41.7076 136.026
687 1 92.7632 40.8186 135.896
688 1 94.0016 39.9296 135.766
689 1 95.24 39.0406 135.636
690 1 96.4785 38.1517 135.506
691 1 97.7169 37.2627 135.376
692 2 98.9553 36.3737 135.246
693 1 89.7091 44.5373 135.393
725 2 97.2403 51.846 181.203
724 1 96.1366 50.8024 181.02
723 1 95.0329 49.7588 180.836
722 1 93.9292 48.7152 180.653
721 1 92.8255 47.6716 180.47
720 1 91.7218 46.628 180.286
719 1 90.6181 45.5844 180.103
701 2 82.6696 47.8283 189.64
702 1 83.3872 47.2869 188.402
703 1 84.1048 46.7455 187.164
704 1 84.8225 46.2041 185.926
705 1 85.5401 45.6627 184.688
706 1 86.2578 45.1214 183.45
707 1 86.9754 44.58 182.212
708 1 87.693 44.0386 180.974
709 3 88.4107 43.4972 179.736
710 1 89.1283 42.9558 178.498
711 1 89.8459 42.4145 177.26
712 1 90.5636 41.8731 176.022
713 1 91.2812 41.3317 174.784
714 1 91.9989 40.7903 173.546
715 1 92.7165 40.2489 172.308
716 1 93.4341 39.7075 171.069
717 2 94.1518 39.1662 169.831
718 1 89.5144 44.5408 179.919
1365 1 134.708 41.8417 143.892
1366 1 134.311 41.2867 145.261
1367 2 133.914 40.7317 146.631
1425 2 129.782 47.8788 171.924
1424 1 130.577 47.44 173.155
1423 1 131.373 47.0011 174.386
1422 1 132.168 46.5623 175.617
1421 1 132.964 46.1235 176.848
1420 1 133.759 45.6846 178.08
1419 1 134.555 45.2458 179.311
1417 2 130.871 53.2449 188.345
1416 1 131.53 52.1353 187.524
1415 1 132.19 51.0257 186.702
1414 1 132.849 49.9161 185.881
1413 1 133.508 48.8065 185.059
1412 1 134.168 47.6969 184.237
1411 1 134.827 46.5873 183.416
726 2 91.3361 43.7369 212.7
727 1 91.0825 43.6353 214.205
728 1 90.8289 43.5338 215.711
729 1 90.5752 43.4322 217.216
730 1 90.3216 43.3307 218.722
731 1 90.0679 43.2291 220.227
732 1 89.8143 43.1275 221.732
733 1 89.5607 43.026 223.238
734 3 89.307 42.9244 224.743
735 1 89.0534 42.8229 226.249
736 1 88.7998 42.7213 227.754
737 1 88.5461 42.6198 229.259
738 1 88.2925 42.5182 230.765
739 1 88.0389 42.4167 232.27
740 1 87.7852 42.3151 233.776
741 1 87.5316 42.2135 235.281
742 2 87.278 42.112 236.786
743 1 89.7883 44.3658 224.922
744 1 90.2695 45.8072 225.1
745 1 90.7507 47.2485 225.278
746 1 91.2319 48.6899 225.456
747 1 91.7131 50.1313 225.635
748 1 92.1944 51.5726 225.813
749 1 92.6756 53.014 225.991
750 2 93.1568 54.4553 226.17
1451 2 125.169 51.8343 221.636
1452 1 126.374 50.9052 221.793
1453 1 127.58 49.9761 221.949
1454 1 128.785 49.0469 222.106
1455 1 129.991 48.1178 222.262
1456 1 131.196 47.1886 222.419
1457 1 132.402 46.2595 222.575
1458 1 133.607 45.3303 222.732
1459 3 134.813 44.4012 222.888
1468 1 134.943 44.817 224.355
751 2 94.3304 78.4749 46.7583
752 1 93.797 79.8261 46.2782
753 1 93.2635 81.1774 45.798
754 1 92.7301 82.5286 45.3179
755 1 92.1967 83.8798 44.8377
756 1 91.6632 85.231 44.3576
757 1 91.1298 86.5822 43.8774
758 1 90.5963 87.9335 43.3973
759 3 90.0629 89.2847 42.9171
760 1 89.5295 90.6359 42.437
761 1 88.996 91.9871 41.9568
762 1 88.4626 93.3383 41.4766
763 1 87.9291 94.6896 40.9965
764 1 87.3957 96.0408 40.5163
765 1 86.8623 97.392 40.0362
766 1 86.3288 98.7432 39.556
767 2 85.7954 100.094 39.0759
768 1 90.0192 89.7814 44.3636
769 1 89.9755 90.2782 45.81
770 1 89.9319 90.7749 47.2565
771 1 89.8882 91.2717 48.7029
772 1 89.8445 91.7684 50.1494
773 1 89.8008 92.2652 51.5958
774 1 89.7571 92.7619 53.0423
775 2 89.7135 93.2587 54.4887
876 2 85.0377 132.178 33.9508
877 1 85.7841 132.291 35.2816
878 1 86.5306 132.405 36.6123
879 1 87.277 132.518 37.9431
880 1 88.0235 132.631 39.2738
881 1 88.77 132.744 40.6046
882 1 89.5164 132.857 41.9353
883 1 90.2629 132.97 43.2661
884 3 91.0093 133.084 44.5968
885 1 91.7558 133.197 45.9275
886 1 92.5023 133.31 47.2583
887 1 93.2487 133.423 48.589
888 1 93.9952 133.536 49.9198
889 1 94.7416 133.649 51.2505
890 1 95.4881 133.763 52.5813
891 1 96.2346 133.876 53.912
892 2 96.981 133.989 55.2428
893 1 90.3084 134.414 44.8768
1501 2 122.972 89.7134 48.1473
1502 1 124.452 89.4872 47.8354
1503 1 125.933 89.261 47.5235
1504 1 127.414 89.0347 47.2117
1505 1 128.894 88.8085 46.8998
1506 1 130.375 88.5823 46.588
1507 1 131.856 88.356 46.2761
1508 1 133.336 88.1298 45.9642
1509 3 134.817 87.9036 45.6524
1518 1 134.944 89.3594 45.1993
1755 1 128.511 134.944 44.5483
1756 1 129.94 134.468 44.8221
1757 1 131.368 133.993 45.0959
1758 1 132.796 133.517 45.3697
1759 3 134.224 133.041 45.6435
1768 1 134.763 134.401 45.1966
776 2 88.9639 99.0037 98.5166
777 1 89.0388 97.7275 97.6759
778 1 89.1137 96.4513 96.8353
779 1 89.1886 95.1752 95.9947
780 1 89.2635 93.899 95.154
781 1 89.3384 92.6228 94.3134
782 1 89.4133 91.3466 93.4728
783 1 89.4882 90.0705 92.6321
784 3 89.5631 88.7943 91.7915
785 1 89.638 87.5181 90.9509
786 1 89.7129 86.2419 90.1102
787 1 89.7877 84.9658 89.2696
788 1 89.8626 83.6896 88.4289
789 1 89.9375 82.4134 87.5883
790 1 90.0124 81.1372 86.7477
791 1 90.0873 79.8611 85.907
792 2 90.1622 78.5849 85.0664
793 1 89.8665 89.6316 90.5474
794 1 90.1699 90.4689 89.3033
795 1 90.4733 91.3062 88.0592
796 1 90.7768 92.1435 86.8151
797 1 91.0802 92.9808 85.571
798 1 91.3836 93.8181 84.327
799 1 91.687 94.6554 83.0829
800 2 91.9904 95.4927 81.8388
801 2 92.7748 99.4429 127.397
802 1 92.3678 98.1485 128.104
803 1 91.9609 96.8541 128.811
804 1 91.5539 95.5597 129.518
805 1 91.147 94.2653 130.225
806 1 90.74 92.9709 130.932
807 1 90.3331 91.6765 131.639
808 1 89.9261 90.3821 132.346
809 3 89.5192 89.0877 133.053
810 1 89.1122 87.7933 133.76
811 1 88.7053 86.4989 134.467
818 1 89.8531 89.7213 134.405
926 2 78.694 129.863 89.3204
927 1 80.12 130.331 89.6183
928 1 81.5459 130.799 89.9162
929 1 82.9718 131.267 90.214
930 1 84.3978 131.735 90.5119
931 1 85.8237 132.203 90.8097
932 1 87.2496 132.671 91.1076
933 1 88.6756 133.138 91.4054
934 3 90.1015 133.606 91.7033
935 1 91.5274 134.074 92.0012
936 1 92.9534 134.542 92.299
943 1 90.031 134.574 90.5205
994 1 90.6715 134.65 134.599
995 1 91.8707 134.025 133.884
996 1 93.0699 133.4 133.168
997 1 94.269 132.774 132.453
998 1 95.4682 132.149 131.737
999 1 96.6674 131.524 131.021
1000 2 97.8665 130.899 130.306
1551 2 122.598 89.1369 90.3449
1552 1 124.119 88.973 90.3358
1553 1 125.64 88.8092 90.3267
1554 1 127.162 88.6453 90.3177
1555 1 128.683 88.4815 90.3086
1556 1 130.204 88.3176 90.2995
1557 1 131.725 88.1538 90.2904
1558 1 133.246 87.9899 90.2813
1559 3 134.767 87.8261 90.2722
1568 1 134.929 89.3357 90.0832
1619 1 134.987 90.1103 134.15
1620 1 134.963 90.3072 132.633
1621 1 134.938 90.504 131.116
1622 1 134.914 90.7009 129.599
1623 1 134.89 90.8978 128.082
1624 1 134.866 91.0947 126.565
1625 2 134.842 91.2916 125.048
1851 2 122.985 131.851 89.3742
1852 1 124.509 131.97 89.4353
1853 1 126.033 132.09 89.4963
1854 1 127.557 132.21 89.5573
1855 1 129.081 132.329 89.6183
1856 1 130.605 132.449 89.6793
1857 1 132.129 132.569 89.7403
1858 1 133.654 132.689 89.8014
850 2 84.8576 95.8912 173.708
849 1 85.6415 94.9931 174.667
848 1 86.4254 94.0951 175.626
847 1 87.2093 93.197 176.586
846 1 87.9932 92.299 177.545
845 1 88.7771 91.4009 178.504
844 1 89.561 90.5029 179.463
843 1 90.3449 89.6049 180.422
842 2 99.8117 87.2118 172.885
841 1 98.7264 87.3987 173.947
840 1 97.641 87.5855 175.009
812 1 88.2984 85.2046 135.174
813 1 87.8914 83.9102 135.881
814 1 87.4845 82.6158 136.588
815 1 87.0775 81.3214 137.295
816 1 86.6706 80.027 138.002
817 2 86.2636 78.7326 138.709
839 1 96.5556 87.7724 176.071
819 1 90.187 90.3548 135.757
820 1 90.5209 90.9883 137.109
821 1 90.8548 91.6218 138.461
822 1 91.1887 92.2553 139.813
823 1 91.5226 92.8889 141.165
824 1 91.8564 93.5224 142.517
825 2 92.1903 94.1559 143.87
826 2 82.4459 90.2018 189.878
827 1 83.5313 90.015 188.816
828 1 84.6166 89.8281 187.753
829 1 85.702 89.6412 186.691
830 1 86.7874 89.4543 185.629
831 1 87.8727 89.2674 184.567
832 1 88.9581 89.0806 183.505
833 1 90.0435 88.8937 182.443
834 3 91.1288 88.7068 181.381
835 1 92.2142 88.5199 180.319
836 1 93.2995 88.3331 179.257
837 1 94.3849 88.1462 178.195
838 1 95.4703 87.9593 177.133
976 2 91.5455 130.297 146.409
977 1 91.1365 130.998 145.112
978 1 90.7275 131.698 143.814
979 1 90.3184 132.398 142.517
980 1 89.9094 133.099 141.22
981 1 89.5003 133.799 139.922
982 1 89.0913 134.5 138.625
1026 2 92.505 125.048 172.975
1027 1 92.3626 126.156 174.021
1028 1 92.2201 127.263 175.067
1029 1 92.0777 128.371 176.112
1043 1 90.4172 134.667 180.41
1030 1 91.9353 129.478 177.158
1031 1 91.7928 130.586 178.204