ITEM: TIMESTEP
3000000
ITEM: NUMBER OF ATOMS
3750
ITEM: BOX BOUNDS xy xz yz pp pp pp
1.1125092653907163e+02 1.5874907346092814e+02 2.8421709430404007e-13
1.1125092653907163e+02 1.5874907346092786e+02 0.0000000000000000e+00
1.1125092653907163e+02 1.5874907346092786e+02 0.0000000000000000e+00
ITEM: ATOMS id mol type mass xu yu zu vx vy vz 
856 29 1 14.026 1583.8 260.378 19.8854 -0.00266791 0.00234252 -0.00334587 
1015 34 1 14.026 1921.71 254.213 17.569 -0.00138612 0.000359882 -0.000583026 
858 29 4 13.018 1586.23 259.847 19.0384 0.00133677 -0.00105076 0.000225645 
865 29 1 14.026 1591.09 257.973 20.342 0.00552237 -0.00143742 0.00129044 
857 29 1 14.026 1584.76 259.392 19.1158 0.00292195 -0.00281642 0.000689357 
860 29 1 14.026 1586.94 260.027 20.3779 -0.000641601 -0.00114366 0.00765193 
861 29 1 14.026 1587.29 258.769 21.1511 -0.00901682 0.000980731 0.00146922 
391 14 2 15.034 1685.68 262.957 18.9057 0.00100516 -0.00208493 -0.000560056 
1971 66 1 14.026 1584.32 255.749 17.1933 0.000870711 -0.000840093 -0.00387007 
862 29 1 14.026 1588.45 258.041 20.4893 -0.00217405 0.0028178 0.00262855 
1017 34 1 14.026 1921.38 254.624 20.0615 -0.00140661 -0.00223568 -0.00633601 
1970 66 1 14.026 1585.23 254.921 18.0865 -0.00850315 -0.00529594 -0.000490749 
859 29 3 15.034 1586.31 261.101 18.133 -0.00529782 0.000248163 0.00263171 
1968 66 4 13.018 1584.7 254.194 19.2998 -0.00141198 -0.00267617 0.00399816 
1018 34 4 13.018 1921.47 254.092 21.4824 0.0025413 0.00130326 0.00399006 
1969 66 3 15.034 1584.46 255.082 20.5748 -0.00259687 -0.00639798 0.000980663 
1282 43 1 14.026 2821.27 312.772 21.192 -0.00240354 -0.00392431 0.00168853 
863 29 4 13.018 1589.82 258.567 21.0383 -0.00797549 -0.00314721 -0.00443484 
1016 34 1 14.026 1922 253.734 18.9894 -0.00163861 -0.00706511 0.00335033 
866 29 1 14.026 1591.14 258.133 18.8035 0.00456897 -0.000452528 -0.00438472 
1020 34 2 15.034 1922.85 253.754 22.1045 -0.00854945 -0.00700524 0.00439785 
1272 43 4 13.018 2823.43 308.8 27.622 -0.00249425 0.0087633 0.00951104 
128 5 3 15.034 1585.69 258.097 26.0277 0.00410322 -0.00700744 -0.00362658 
1278 43 4 13.018 2820.76 309.757 23.6561 -0.00812005 0.00108137 0.00256162 
1274 43 1 14.026 2823.93 307.99 26.4171 0.00163487 0.00674432 0.00347548 
1280 43 1 14.026 2821.23 310.503 22.3936 -0.00670551 -0.00478365 0.00927384 
1279 43 3 15.034 2819.31 309.192 23.5522 -0.00172643 0.00221261 0.00352719 
1680 56 2 15.034 1536.74 262.783 -19.622 0.00195066 -0.00707193 -0.00158879 
1276 43 1 14.026 2823.06 309.666 24.6882 -0.00175743 0.00254669 0.00377935 
1679 56 3 15.034 1538.32 264.806 -19.9247 -0.000362932 0.00415736 0.00210461 
1277 43 1 14.026 2821.85 308.828 24.2248 0.00282711 -0.00475357 -0.0018302 
1275 43 1 14.026 2824.32 308.871 25.2149 9.81433e-05 -0.00110678 -0.00146082 
129 5 1 14.026 1585.11 255.931 27.3779 -0.00601155 0.00477252 -0.00239999 
127 5 4 13.018 1584.57 257.206 26.6273 -0.00163519 0.000218127 -0.00263702 
3073 103 3 15.034 1732.27 255.629 26.4521 0.00270869 -0.000690296 -0.000727605 
1019 34 3 15.034 1920.46 254.877 22.4487 -0.00157438 0.000786175 0.006207 
1678 56 4 13.018 1536.91 264.252 -20.0796 6.09322e-05 0.00339462 0.00730476 
3072 103 4 13.018 1733.65 256.234 26.8496 -0.0022958 0.00761792 -0.000537455 
864 29 3 15.034 1589.9 258.511 22.5736 -0.00806356 0.00271831 0.000757582 
3149 105 3 15.034 1970.53 265.444 24.2936 -0.00405482 -0.000652196 0.000575442 
1281 43 1 14.026 2820.84 311.952 22.4557 -0.00431177 -0.0014042 0.00668174 
1273 43 3 15.034 2824.57 309.479 28.3752 -0.00469431 -0.000668618 0.00088993 
131 5 1 14.026 1586.88 255.229 29.0738 -0.00206509 0.00118588 -0.00279399 
132 5 4 13.018 1587.49 255.555 30.4718 0.00373246 -0.00671098 -0.000848453 
1268 43 3 15.034 2820.45 310.326 31.9498 0.00442601 0.00157134 0.0050676 
133 5 3 15.034 1588.24 254.365 31.1033 0.00182409 -0.00547117 0.00483867 
136 5 1 14.026 1589.81 258.547 31.714 -0.00485414 -0.00378789 0.000337208 
134 5 1 14.026 1588.34 256.809 30.4827 -2.92476e-05 -0.00123689 -0.00837741 
1728 58 4 13.018 1732.49 263.91 32.3562 0.00475062 0.00221291 0.00190668 
1269 43 1 14.026 2821.02 308.118 30.7497 0.00257317 0.00532149 0.001533 
1270 43 1 14.026 2821.91 308.908 29.8018 0.00105899 -0.00830216 -0.00111337 
130 5 1 14.026 1585.94 256.371 28.6292 0.00285642 -0.00180745 -0.0004605 
1271 43 1 14.026 2822.4 308.169 28.5807 -0.00150492 -0.00148704 0.00135744 
1729 58 3 15.034 1732.07 262.446 32.5941 -0.00239015 -0.00466581 0.00630558 
1266 43 1 14.026 2819.21 308.092 32.4911 0.000138736 0.00280253 0.000486651 
1267 43 4 13.018 2819.99 308.957 31.4998 -0.0078742 0.00410582 -0.00557498 
135 5 1 14.026 1588.76 257.469 31.7937 -0.00959324 -0.0023637 -0.00314973 
137 5 1 14.026 1591.18 257.989 31.4272 0.00286184 -0.00466901 -0.00818838 
1727 58 1 14.026 1732.23 264.634 33.7024 0.00428314 -0.00641447 -0.000756462 
1730 58 1 14.026 1733.94 264.09 31.8896 -0.00629301 -0.000783453 -0.00393217 
1031 35 1 14.026 1777.21 259.638 39.463 0.00642851 0.00417906 0.0033425 
2641 89 2 15.034 1586.96 258.893 35.0592 0.00744175 0.000610361 -0.00689463 
1723 58 3 15.034 1729.21 263.18 37.5193 -0.004567 0.003514 -0.0015277 
2648 89 3 15.034 1590.99 262.483 37.2781 -0.00406802 0.00534051 -0.00445957 
2642 89 4 13.018 1587.73 258.001 36.0026 -0.00224224 0.00789238 0.00675192 
1029 35 1 14.026 1774.91 259.395 38.323 -0.00182247 0.00122351 -7.36784e-05 
1722 58 4 13.018 1728.5 263.913 36.3559 0.00261574 -0.00280487 -0.00555479 
1721 58 1 14.026 1726.94 263.943 36.4962 -0.00504882 0.0060396 0.00238227 
576 20 1 14.026 2636.1 301.486 38.0048 0.0013125 0.00525823 -0.00636604 
1725 58 1 14.026 1730.54 265.035 35.5507 0.000500257 0.00312328 -0.00447282 
2644 89 1 14.026 1589.27 258.279 35.9162 -0.00145239 -0.000896188 -0.00721159 
2643 89 3 15.034 1587.3 256.532 35.8822 -0.000962315 0.00792039 0.0109024 
2645 89 1 14.026 1589.81 259.539 36.5783 -0.0072005 -0.00922175 -0.00762556 
1724 58 1 14.026 1729.09 265.263 36.0067 0.00398508 -0.00385629 0.00536994 
1030 35 1 14.026 1776.02 258.733 39.1692 0.00167355 -0.0010062 -0.00378286 
575 20 1 14.026 2636.5 302.712 38.8468 0.00566468 -0.00632219 0.00509693 
1726 58 1 14.026 1730.8 264.433 34.1382 0.00134401 -0.00583147 0.000748325 
577 20 4 13.018 2634.6 301.488 37.7946 -0.00260626 0.00275342 -0.00242002 
2646 89 1 14.026 1591.23 260.072 36.2946 -0.00129276 0.00185483 0.00218668 
1720 58 1 14.026 1726.24 264.614 35.3334 0.00228083 0.0130652 -2.4462e-05 
578 20 3 15.034 2633.74 301.269 39.115 -0.000436048 0.004525 0.000948987 
1743 59 3 15.034 1537.64 255.694 42.0591 0.00181606 0.00561263 -0.0013603 
1032 35 4 13.018 1778.21 259.141 40.5681 0.00452375 -0.00240804 0.00913908 
529 18 3 15.034 1774.74 262.281 -6.0157 -0.000144095 0.00470072 -0.00102677 
528 18 4 13.018 1774.96 261.897 -4.60131 -0.00765921 0.00459525 -0.000660551 
1036 35 1 14.026 1779.01 259.678 43.5761 -0.000341404 0.00627238 0.00088259 
525 18 1 14.026 1774.84 258.505 -2.46381 0.00356956 0.00387277 0.00873656 
1037 35 1 14.026 1779.67 259.241 44.9146 -0.00509294 0.000515987 0.00105326 
533 18 4 13.018 1778.61 265.445 -4.3456 -0.000552907 -0.000564764 -0.000209238 
531 18 1 14.026 1776.96 263.637 -4.55146 0.0021656 -0.00159568 -0.00671291 
526 18 1 14.026 1775.12 259.964 -2.80469 -0.00415209 -0.00306253 0.00630439 
527 18 1 14.026 1774.77 260.367 -4.29263 0.00223478 0.00230353 -0.00591031 
1039 35 3 15.034 1779.65 256.66 44.2533 0.00592004 0.00480638 0.00521267 
1742 59 4 13.018 1536.44 256.141 41.1776 0.00273035 -0.00229642 -0.00050954 
532 18 1 14.026 1778.3 263.977 -3.94961 -0.000694384 -0.00728602 -0.000869336 
530 18 1 14.026 1776.41 262.288 -4.10052 -0.00178467 0.000474909 -0.000873241 
1038 35 4 13.018 1780.41 257.867 44.8941 -0.00885338 0.00182729 -0.000681239 
1035 35 1 14.026 1779.98 259.825 42.3935 0.00338378 0.00498665 -0.00674769 
1034 35 1 14.026 1779.21 260.211 41.0991 6.61272e-05 -0.00467904 0.000237689 
1033 35 3 15.034 1778.83 257.82 40.0582 0.000236521 -0.0083724 -0.0017825 
3385 113 1 14.026 1686.45 262.519 -2.81626 -0.00317635 0.000733872 -0.00445557 
958 32 4 13.018 1821.62 265.551 -1.96421 -0.00398512 -0.00704744 0.00126817 
523 18 3 15.034 1775.79 256.347 0.597995 -0.00483378 0.00397061 0.0027636 
3381 113 1 14.026 1684.9 262.37 -0.283617 -0.000285733 0.000178976 0.00604824 
524 18 1 14.026 1775.22 258.31 -0.950472 0.00685689 0.00504776 -0.00123751 
3378 113 4 13.018 1682.87 261.437 0.797945 -0.00501395 0.00805774 -0.00576111 
3319 111 3 15.034 2868.99 305.769 4.03961 0.00387118 0.0071041 0.00182789 
3413 114 4 13.018 1731.9 254.803 2.94234 -0.0058004 0.00190732 -0.0080085 
3380 113 1 14.026 1683.61 262.74 0.500198 0.000374215 0.00265892 0.0062784 
3377 113 1 14.026 1681.49 261.683 1.49514 -0.00245569 -0.00195085 -0.00153942 
3415 114 1 14.026 1730.5 254.421 3.4048 -0.00128163 -0.00211187 -0.00571302 
3376 113 1 14.026 1680.51 262.769 0.979003 0.00159079 0.00827479 0.00421958 
3375 113 1 14.026 1679.04 262.627 1.36285 -0.00140969 -0.000493981 -0.00269861 
3379 113 3 15.034 1683.76 260.364 1.36957 -0.00370318 -0.00129454 0.00785019 
1040 35 1 14.026 1780.74 257.479 46.3573 -0.00579997 0.00216007 0.00416894 
522 18 4 13.018 1775.03 256.814 -0.629721 0.00283853 0.00826708 -0.000417448 
3414 114 3 15.034 1732.3 256.083 3.64202 0.00191268 0.000910449 0.00184992 
3382 113 1 14.026 1685.81 263.482 -0.610642 0.00259419 0.00285983 -0.00617962 
3316 111 1 14.026 2866.18 304.317 3.94615 -0.000692976 -0.00588338 0.00429196 
3318 111 4 13.018 2868.54 304.632 5.00191 0.000779249 0.00429643 -0.00212728 
3323 111 4 13.018 2870.86 303.541 8.83668 0.00470716 -0.00453235 -0.00313999 
2993 100 4 13.018 2016.6 262.564 57.2919 0.0048603 0.00402715 -0.000381765 
3320 111 1 14.026 2869.24 304.579 6.36025 0.00406443 -0.00417859 0.00278357 
2995 100 1 14.026 2015.15 263.126 57.0897 -0.00333572 -0.00129149 0.000786093 
1050 35 2 15.034 1780.72 259.722 53.546 0.00187155 0.00982158 0.000971631 
3321 111 1 14.026 2868.86 303.379 7.22706 -0.0030911 -0.00417993 -0.00135812 
2610 87 2 15.034 2063.37 264.659 5.32304 0.00215281 0.00179562 0.00667647 
1048 35 4 13.018 1781.41 258.425 53.8368 -0.0018131 0.00294728 -0.00117946 
3317 111 1 14.026 2867.01 304.62 5.17285 -0.00032185 -9.11824e-05 -0.00126868 
3322 111 1 14.026 2869.39 303.352 8.64752 0.00712052 -0.00302452 -0.00561585 
3213 108 3 15.034 1679.95 262.035 7.02501 -0.00342818 -0.00115873 0.00355041 
3324 111 3 15.034 2871.77 302.582 8.04063 0.0104856 0.00668457 0.00326968 
2992 100 1 14.026 2017.61 262.958 56.2137 0.00478356 0.00739108 -0.0016043 
2994 100 3 15.034 2016.78 261.112 57.7846 -0.0037039 -0.0026989 -0.00392804 
2432 82 4 13.018 3063.04 312.25 -33.7548 -0.00258861 -0.00595227 0.00264114 
3329 111 3 15.034 2870.66 307.116 13.3378 -0.0060403 -0.00436172 0.00170742 
3326 111 1 14.026 2870.49 304.757 11.0633 0.00235744 0.00133533 0.00333187 
2433 82 3 15.034 3063.56 312.851 -32.4385 0.00280989 0.00211262 -0.00436617 
3325 111 1 14.026 2871.22 303.586 10.3413 0.00338179 0.00515644 0.000424042 
3328 111 4 13.018 2870.08 305.703 13.5036 0.0038809 -0.00297944 -0.000265296 
870 29 2 15.034 1591.6 257.973 15.7237 -0.00278954 0.00514241 -0.0020357 
2431 82 2 15.034 3061.98 311.195 -33.4304 0.000207427 -0.00266533 -0.00422566 
3330 111 2 15.034 2870.07 305.154 14.9955 0.00253919 0.00102015 0.0020116 
2997 100 1 14.026 2012.71 263.192 58.1741 0.0084543 0.0035444 0.0111277 
3000 100 2 15.034 2012.45 263.856 60.651 0.00128083 0.00394347 7.84288e-06 
1006 34 1 14.026 1917.07 255.456 13.1381 -0.00500009 -0.000518675 0.0083266 
3327 111 1 14.026 2870.68 304.634 12.6306 -0.00748952 0.00601577 0.00338499 
2998 100 4 13.018 2011.98 262.922 59.5086 0.000476018 -0.00557833 0.00190162 
2996 100 1 14.026 2014.21 262.909 58.335 0.005269 -0.00644956 0.00780709 
1007 34 1 14.026 1917.2 254.017 12.5417 0.00481308 -0.00153933 0.000611977 
2620 88 1 14.026 2203.35 274.492 21.4752 0.00463885 -0.00160613 0.00317532 
2628 88 4 13.018 2201.56 272.675 17.2618 -0.0046733 -0.00135726 0.000876949 
1290 43 2 15.034 2824.55 316.05 16.6473 0.00108642 0.00785949 0.00513054 
2617 88 4 13.018 2203.82 276.521 20.1225 6.59494e-05 0.00162107 0.0108145 
1285 43 1 14.026 2821.1 314.726 19.4958 0.000113395 -0.00453426 -0.00155106 
2623 88 3 15.034 2205.86 271.529 21.908 -0.00694119 0.00235316 0.00634352 
1283 43 4 13.018 2820.42 313.928 20.5948 -0.00316053 -0.000614008 -0.00578571 
1286 43 1 14.026 2822.43 315.409 19.9996 0.00154587 -0.00395296 -0.00345144 
2624 88 1 14.026 2203.49 270.813 21.6716 -0.00302366 -0.000111027 0.00269861 
1287 43 1 14.026 2823.09 316.295 18.8652 0.00210762 -0.000277458 -0.000197745 
272 10 4 13.018 2113.39 273.348 17.4334 -0.00483343 -0.00348463 0.00663447 
1289 43 3 15.034 2824.72 314.321 18.5413 0.00276969 -0.00368315 0.00328404 
2626 88 1 14.026 2202.34 271.485 19.359 -0.00157225 -0.00471524 -0.000679362 
2625 88 1 14.026 2202.19 270.985 20.8118 -0.00205223 0.00800572 -0.00412004 
2619 88 1 14.026 2204.42 275.375 20.8976 0.00816216 0.00155628 -0.00151503 
2630 88 1 14.026 2202.57 273.826 17.3147 0.000494251 0.000763779 -0.00573447 
2622 88 4 13.018 2204.46 272.033 21.5723 -0.0041798 0.00856045 0.00378672 
1284 43 3 15.034 2818.98 313.591 20.2542 -0.00282993 0.00434082 -0.0011192 
1288 43 4 13.018 2823.77 315.37 17.8051 -0.00143476 -0.0039305 -0.00320678 
271 10 2 15.034 2111.89 273.485 17.2568 0.00114923 0.000149592 -0.00618288 
2615 88 1 14.026 2205.06 277.316 18.165 -0.00136271 -0.00237939 -0.00230991 
2627 88 1 14.026 2201.22 272.174 18.6614 -0.00295965 0.00083228 -0.00132495 
2618 88 3 15.034 2202.8 277.344 20.9068 -0.00105352 0.00430037 0.00145188 
2616 88 1 14.026 2204.92 277.434 19.6362 -0.00764149 -0.00105649 -0.0115441 
2612 88 4 13.018 2206.77 277.344 16.4786 0.00502407 0.0022983 0.00516776 
273 10 3 15.034 2114.02 274.589 18.0607 -0.00043148 0.00527823 0.00040329 
1785 60 1 14.026 2106.6 276.564 24.8221 0.00429784 0.00277411 -0.00448409 
2133 72 3 15.034 2204.04 275.816 -19.4964 0.00270884 -0.00636193 -0.000419594 
2175 73 1 14.026 1970.11 271.779 -22.4523 0.00144382 0.0036156 0.00238406 
2621 88 1 14.026 2203.97 273.342 22.3156 1.58659e-05 -0.0111427 -0.000449582 
2177 73 1 14.026 1967.62 271.608 -21.8635 0.00072733 -0.00532687 -0.00261393 
2178 73 4 13.018 1966.46 271.339 -20.866 0.00975819 0.00237513 -0.00348429 
2179 73 3 15.034 1965.09 271.431 -21.5119 -0.00125514 0.000893772 -0.0126622 
2176 73 1 14.026 1969.06 271.699 -21.3386 -0.00437386 0.000366284 -0.00716692 
3468 116 4 13.018 2303.14 276.177 24.3742 0.00548349 -0.00228704 -0.0103116 
2180 73 1 14.026 1966.61 270.028 -20.0572 0.00220356 0.000470804 -0.00475199 
3150 105 2 15.034 1971.02 267.589 22.7516 0.00406582 -0.00367039 0.00542929 
2174 73 1 14.026 1971.57 271.449 -22.0887 0.00714428 -0.000198822 -0.00294007 
3471 116 1 14.026 2303.96 276.306 26.7879 -0.00174442 0.00368207 -0.00312961 
3469 116 3 15.034 2301.76 275.551 24.6018 -0.00432572 0.00237804 -0.000887179 
3467 116 1 14.026 2303.5 276.168 22.8868 0.00463244 0.00481118 0.00416512 
1709 57 3 15.034 1827.39 267.835 27.5352 -0.000936838 0.00483647 -0.0066758 
3148 105 4 13.018 1971.57 266.471 23.7763 -0.00292463 0.00469072 -0.000761813 
1708 57 4 13.018 1827.88 266.773 28.5258 -0.00708518 0.00569181 -0.00559321 
2132 72 4 13.018 2202.99 274.97 -18.7648 -8.77113e-05 0.00407785 0.00319214 
2137 72 4 13.018 2206.61 273.819 -15.9768 0.00830896 -0.00132923 0.00256938 
2186 73 1 14.026 1965.58 270.227 -14.4037 -0.00227053 0.000805532 0.00742792 
2140 72 1 14.026 2208.89 273.119 -16.9783 -0.0115973 -0.00375778 -0.000459025 
2139 72 1 14.026 2207.74 274.214 -16.9781 -0.000891779 0.00270608 -0.00575088 
1321 45 2 15.034 2252.12 276.735 33.1084 0.00327833 -0.00463126 0.004543 
2185 73 1 14.026 1966.32 269.479 -15.4822 0.00953989 0.00174204 -0.00152419 
2183 73 4 13.018 1965.64 268.507 -16.5009 0.000905167 -0.00110911 -0.00195141 
2184 73 3 15.034 1965.68 267.048 -16.0571 -0.00485265 0.00517615 0.00103193 
2136 72 1 14.026 2205.63 272.829 -16.6295 0.00202151 -0.000457876 -0.00113601 
2135 72 1 14.026 2204.89 273.394 -17.8503 0.00489473 -0.00781832 0.00293218 
2134 72 1 14.026 2203.66 274.246 -17.5522 -0.00244824 -0.00146037 0.00288099 
2187 73 1 14.026 1966.59 270.913 -13.4852 -0.0083543 0.00703362 0.0101337 
2182 73 1 14.026 1966.21 268.697 -17.9176 0.000433069 -0.000846524 -0.00197022 
1710 57 2 15.034 1826.77 266.603 29.6109 0.0051603 -0.00238261 0.00478302 
2181 73 1 14.026 1965.83 269.98 -18.7125 0.00182691 -0.00201806 0.00085968 
2138 72 3 15.034 2207 273.39 -14.5637 -8.32855e-05 0.00118878 -0.000202828 
2131 72 2 15.034 2201.81 275.788 -18.2784 -0.00285009 -0.00952636 -0.00218127 
1322 45 4 13.018 2252.62 277.333 31.736 0.00192345 -0.00736758 -0.00667672 
937 32 4 13.018 1827.72 268.601 -8.82663 -0.00465404 -0.00109835 0.00261662 
1173 40 3 15.034 1970.51 268.679 -13.1634 0.00338164 0.00602118 -0.00452593 
1989 67 1 14.026 1923.16 273.21 -7.97383 -0.000328761 -0.00499797 0.00332906 
1990 67 1 14.026 1923.53 273.582 -9.4556 -0.00363483 -0.00456157 0.00340823 
940 32 1 14.026 1825.19 268.671 -9.07321 -0.00325592 0.00649179 -0.00403524 
2189 73 3 15.034 1966.98 272.884 -11.844 0.00545491 0.00782879 -0.00169154 
936 32 1 14.026 1829.14 269.351 -8.89324 0.00424214 -0.00220329 -0.00151474 
2188 73 4 13.018 1965.95 272.121 -12.687 -0.00663223 -0.00245805 -0.00706712 
944 32 1 14.026 1822.15 267.911 -8.52033 -0.00281707 0.00665488 -0.00658064 
943 32 3 15.034 1821.83 269.007 -10.9188 -0.00207347 -0.00296455 0.000196679 
942 32 4 13.018 1822.76 268.471 -9.85252 0.0031994 0.00160129 0.00226665 
3285 110 1 14.026 1918.39 276.773 37.2421 -0.00157847 0.00426962 0.00473483 
3284 110 1 14.026 1919.5 276.687 38.3269 0.0025109 0.000881721 0.00681611 
3286 110 1 14.026 1917.3 275.71 37.4079 -0.000962011 -0.000108001 0.0128418 
939 32 1 14.026 1826.51 269.461 -9.17595 -0.000458047 -0.00156 0.00166332 
1988 67 3 15.034 1920.59 273.118 -8.17145 0.000867349 -0.00755101 3.17911e-05 
941 32 1 14.026 1823.92 269.434 -9.62784 -0.0039158 0.00355818 -0.00806631 
945 32 1 14.026 1821.2 266.71 -8.7888 0.000836849 -0.00276886 -0.00703791 
938 32 3 15.034 1827.82 267.307 -9.61499 0.00561941 0.000672185 0.0021656 
3287 110 1 14.026 1916.7 275.605 38.8351 0.00723156 -0.00940786 0.00383209 
3289 110 3 15.034 1916.68 273.059 39.0093 0.00328729 -0.00693069 -0.00139994 
3281 110 1 14.026 1921.95 277.398 39.0264 0.00157354 -0.00272431 0.000763185 
2190 73 2 15.034 1965.08 273.173 -13.3762 -0.000588594 0.00533657 0.000113851 
1987 67 4 13.018 1921.76 273.819 -7.51819 0.00581792 0.00391849 -0.00499019 
1861 63 2 15.034 1920.9 270.217 -4.72245 0.00595719 -0.00257671 0.00652867 
1865 63 1 14.026 1917.03 270.013 -4.91367 0.000326709 0.0063739 0.00302694 
688 23 4 13.018 2153.72 274.069 -2.94769 0.00298061 0.00291657 -0.00178257 
1863 63 3 15.034 1919.24 270.136 -2.79331 -0.00222336 0.00222584 0.00174649 
536 18 1 14.026 1780.32 267.364 -3.62011 0.00230018 -0.000377688 0.00173991 
1981 67 2 15.034 1923.57 276.53 -2.05468 -0.00189566 -0.000970653 -0.00267324 
1984 67 1 14.026 1922.56 275.191 -3.78592 0.00166872 0.00682724 0.00336458 
1862 63 4 13.018 1919.44 270.39 -4.31728 0.00487733 0.00456525 0.00136745 
690 23 2 15.034 2155.24 273.785 -3.13869 -0.00222099 -0.00241636 0.00166835 
1986 67 1 14.026 1921.61 273.986 -5.98006 -0.00178488 0.00486414 0.00280424 
1982 67 4 13.018 1923.67 276.228 -3.55103 0.00298023 -0.00738917 -0.000156662 
1985 67 1 14.026 1922.68 274.91 -5.33412 -0.00262941 0.00291929 -0.00101907 
1864 63 1 14.026 1918.48 269.591 -5.18744 -0.0037889 -0.000868106 0.00273695 
960 32 2 15.034 1822.06 266.026 -3.33569 0.00290021 0.00272702 -0.000883037 
534 18 3 15.034 1778.65 265.824 -5.87115 1.60463e-05 -0.0028459 -0.00677566 
537 18 1 14.026 1781.46 267.674 -2.6717 0.000717852 0.00251971 -0.00410934 
535 18 1 14.026 1779.91 265.897 -3.63959 0.00281927 0.00353492 0.00941636 
3333 112 3 15.034 2391.78 273.014 2.32846 0.00146088 0.000863697 -0.0006674 
3441 115 1 14.026 2016.36 270.473 0.747805 -0.00306155 -0.0106114 0.00408348 
3335 112 1 14.026 2395.01 275.194 2.66567 0.00171656 0.0062663 -0.00166911 
3332 112 4 13.018 2392.7 274.123 2.84404 0.00439153 0.00182773 0.00539663 
3442 115 1 14.026 2017.76 270.99 0.501311 -0.00286365 -0.00177209 -0.000473215 
3331 112 2 15.034 2391.89 275.337 3.39622 0.00139764 0.00677153 -0.00367653 
3438 115 4 13.018 2016.63 268.001 0.378408 0.00147163 -0.00369804 0.00808401 
3336 112 1 14.026 2396.26 275.59 2.00726 0.00474841 0.00209894 -0.00131234 
3334 112 1 14.026 2393.92 274.424 1.939 0.00222541 0.00509686 -0.00149614 
3443 115 4 13.018 2017.63 272.487 0.121793 -0.00534405 -0.00510938 -0.00215156 
3439 115 3 15.034 2015.39 267.302 -0.198273 0.00421026 -0.00586864 -0.000646897 
3569 119 3 15.034 2109.17 277.467 46.1798 2.86527e-05 -0.000573412 -0.00678147 
3337 112 4 13.018 2397.29 276.154 3.01898 0.000481801 0.00531686 0.00723278 
959 32 3 15.034 1821.72 266.547 -0.815063 0.00236921 0.00246897 -0.00149121 
3440 115 1 14.026 2016.21 269.087 1.35711 0.0016361 -0.00231445 -0.00390839 
3437 115 1 14.026 2017.65 266.92 0.812614 0.00125018 0.00106234 -0.00822665 
3338 112 3 15.034 2397.82 275.216 4.16364 -0.00796156 -0.00439469 0.00424673 
3444 115 3 15.034 2016.61 272.856 -0.972621 -0.00206972 0.000540072 -0.00269254 
3339 112 1 14.026 2398.35 277.12 2.39104 -0.00565745 0.00246214 -0.00268611 
3436 115 1 14.026 2018.82 267.609 1.50701 0.00201381 -0.00366833 0.00729961 
3445 115 1 14.026 2019 273.175 -0.0222606 -0.00549674 -0.00175021 -0.00724194 
2031 68 1 14.026 1826.69 271.198 6.16598 0.0023808 0.00124034 0.00584445 
2030 68 1 14.026 1828.09 271.635 6.60988 0.000236475 -5.8906e-07 -0.000897355 
3629 121 3 15.034 2298.36 275.357 7.00206 -0.00894398 -0.00625375 0.00151625 
2609 87 3 15.034 2063.27 267.005 6.11343 -0.0104581 -0.00125027 0.005965 
2036 68 1 14.026 1821.79 269.724 6.97044 -1.77353e-05 -0.00166372 0.000702912 
2033 68 4 13.018 1824.24 270.343 6.59518 -0.00162987 0.00677564 -0.00499433 
2606 87 1 14.026 2066.27 267.277 5.97849 0.000682273 -0.00408044 4.23221e-05 
2035 68 1 14.026 1823.07 270.255 7.61769 -0.000657579 0.000668865 -0.00126492 
3628 121 4 13.018 2299.1 274.74 8.17702 -0.00579578 0.000744283 0.000713014 
2032 68 1 14.026 1825.59 270.753 7.20207 -0.00352749 -0.00228361 -0.00739989 
3630 121 2 15.034 2298.08 274.073 9.12403 0.00602336 0.00311014 0.000786703 
3627 121 1 14.026 2300.26 275.545 8.86315 0.00552772 0.00407374 0.0013977 
3625 121 1 14.026 2302.52 276.616 8.9007 0.00152871 -0.000151549 -0.00106864 
2608 87 4 13.018 2064.15 265.992 5.44284 0.00704865 -0.00835727 -0.00425492 
3626 121 1 14.026 2301.44 276.084 7.95717 0.00204429 0.00744897 0.00165411 
286 10 1 14.026 2106.56 267.193 10.1319 -0.00120704 0.00239656 0.00358988 
283 10 3 15.034 2110.75 267.478 10.2821 0.000622036 0.00414705 -0.00164776 
2607 87 1 14.026 2065.55 265.918 6.09643 -0.00243454 0.00537046 -0.00156631 
2034 68 3 15.034 1823.9 271.023 5.22409 -0.0101938 -0.00628867 0.0021122 
3623 121 4 13.018 2303.79 277.164 8.16964 -0.0021408 0.00218942 0.00041639 
2479 83 3 15.034 1869.03 265.635 5.22504 -0.00205007 -0.00111501 0.000508405 
2028 68 4 13.018 1829.07 271.913 5.43425 -0.00195973 -0.00324922 -0.00643042 
279 10 1 14.026 2112.64 270.095 13.5269 0.00506869 0.00239128 -0.0131011 
281 10 1 14.026 2110.63 269.014 12.3812 -0.00897752 0.00578551 0.000689614 
2637 88 1 14.026 2207.2 273.676 12.4554 -0.00115716 0.00579412 0.00574593 
284 10 1 14.026 2108.57 267.876 11.4468 -0.000759257 -0.00179122 -0.00207762 
3599 120 3 15.034 1821.81 268.802 14.8994 0.000357784 9.89146e-05 -0.00436801 
2635 88 1 14.026 2204.75 272.858 12.6891 -0.0020944 -0.000246712 -0.000645289 
282 10 4 13.018 2110.08 267.768 11.6423 0.00551092 -4.07041e-05 -0.000492664 
2634 88 3 15.034 2203.42 275.029 13.1658 0.00118224 0.00465697 0.000826723 
280 10 1 14.026 2112.15 268.912 12.6838 -0.00337983 0.0049682 0.00474685 
2633 88 4 13.018 2204.23 273.888 13.7038 0.00213839 0.00397192 -3.77489e-05 
2636 88 1 14.026 2205.85 273.339 11.8026 -0.00507357 0.00327292 0.0101898 
2640 88 2 15.034 2208.42 272.558 10.4552 0.00769822 -0.00385684 0.000850369 
2638 88 4 13.018 2208.24 273.8 11.3373 0.00498987 -7.853e-05 0.00427122 
3598 120 4 13.018 1821.44 267.389 15.3765 0.00181366 0.00294845 -0.000624899 
2632 88 1 14.026 2203.65 273.277 14.9741 -0.000165374 -0.00164454 -0.00130592 
3600 120 2 15.034 1822.63 266.56 15.9269 -0.001757 0.0021792 -0.00321279 
275 10 1 14.026 2113.78 271.691 15.585 0.00227171 1.5699e-05 -0.00446019 
2613 88 3 15.034 2205.65 277.138 15.4118 0.00277095 -0.00279472 -0.00333293 
2631 88 1 14.026 2203.06 274.319 15.9104 0.00598039 0.00116977 0.00205166 
285 10 1 14.026 2108.07 266.844 10.3849 0.00164251 -0.00168913 -0.000624195 
2839 95 3 15.034 2391.31 286.116 18.2427 0.00125917 0.00596418 -0.00902295 
377 13 1 14.026 2107.2 281.087 -27.3408 -0.00178321 -0.00256515 0.00580006 
376 13 1 14.026 2106.63 281.347 -28.7061 -0.00754304 0.00542154 -0.00340748 
2842 95 1 14.026 2395.72 285.828 17.6623 -0.00247934 -0.0013628 0.00115945 
375 13 1 14.026 2107.03 280.277 -29.6986 0.00315772 -0.00136449 0.000719859 
2838 95 4 13.018 2391.85 284.893 17.4389 -0.0068959 -0.00677972 0.00549676 
2841 95 1 14.026 2394.21 285.647 18.0185 0.00207313 0.000683683 -0.000785747 
2844 95 3 15.034 2398.12 286.393 18.3685 0.00155614 0.00202272 0.00616851 
3512 118 4 13.018 2725.48 288.757 21.2609 -0.00295742 0.00499759 0.00203511 
2843 95 4 13.018 2396.66 286.381 18.8045 -0.00344539 -0.00616934 -0.00725643 
2550 85 2 15.034 2208.58 282.637 17.346 -0.00267476 0.00147325 -0.00345122 
379 13 3 15.034 2107.29 283.498 -26.2782 -0.00196402 -0.00255277 0.00511924 
2840 95 1 14.026 2393.32 285.025 16.9271 0.000474008 -0.00544151 0.00458698 
2845 95 1 14.026 2396.44 285.503 20.0727 0.000540948 0.000970469 0.00186966 
2846 95 1 14.026 2396.99 286.322 21.3057 -0.000621403 -0.000887016 -0.00708496 
378 13 4 13.018 2106.78 282.046 -26.205 0.00389621 -0.00377524 0.00119117 
2614 88 1 14.026 2206.28 278.045 17.7038 -0.00380645 0.00468939 0.00656625 
2849 95 3 15.034 2396.53 287.484 24.4054 -0.00310791 -0.00258899 -0.00207706 
2847 95 1 14.026 2396.64 285.612 22.5789 0.00144356 0.00216401 -0.00182192 
1784 60 1 14.026 2106.72 278.083 25.0871 -0.00106839 0.00112801 0.00168579 
3472 116 1 14.026 2304 277.871 26.8942 0.00780485 0.00311128 0.000170233 
1781 60 1 14.026 2107.95 279.846 26.4213 0.00725167 1.5974e-05 -0.00409986 
1780 60 1 14.026 2106.72 279.795 27.3283 -0.0049184 -0.00112608 -0.00265974 
2848 95 4 13.018 2397.25 286.229 23.845 0.00373674 -0.00324075 0.0093995 
1490 50 1 14.026 2302.99 283.688 27.0786 0.00351606 0.00130745 -0.00188969 
1493 50 4 13.018 2299.4 285.031 27.5269 0.00777368 -0.00805194 -0.00464929 
1782 60 4 13.018 2108.07 278.524 25.6928 -0.00145293 -0.00938273 -0.00430716 
1488 50 4 13.018 2303.62 282.436 26.5056 0.00821775 0.00163467 0.00576636 
1491 50 1 14.026 2301.46 283.716 26.9955 0.00088894 0.00246544 0.00798539 
2850 95 2 15.034 2398.74 286.211 24.089 -0.000693775 0.00348555 -0.00144359 
1489 50 3 15.034 2302.83 281.808 25.3491 0.00708333 0.0016798 0.000274071 
1783 60 3 15.034 2109.07 278.595 24.5546 0.00493461 0.00700505 -0.00186799 
1492 50 1 14.026 2300.9 284.973 27.6315 -0.00313793 0.000683813 0.00305437 
1494 50 3 15.034 2298.81 283.605 27.5127 0.00508228 -0.00184222 -0.00349917 
3513 118 3 15.034 2725.06 287.722 22.3603 -0.00378866 -0.00388849 0.00247534 
1779 60 1 14.026 2106.26 281.047 28.0816 -0.00334873 0.000321098 0.00364352 
1125 38 1 14.026 1963.82 278.734 -13.8683 -0.00106648 -0.0012656 0.00539411 
1077 36 1 14.026 2204.41 285.663 -15.5284 0.00032659 -0.00278697 -0.0039968 
1076 36 1 14.026 2205.1 284.291 -15.7406 -0.00286487 -0.00151639 -0.00163412 
1075 36 1 14.026 2206.44 284.489 -16.3745 -0.00523491 -0.00644195 -0.00783317 
1080 36 2 15.034 2204.24 287.753 -14.0983 0.00358275 0.00156196 -0.00102664 
3473 116 4 13.018 2303.41 278.543 28.1664 -0.00107268 0.0032238 0.000749204 
1323 45 3 15.034 2251.6 278.303 31.1552 0.00569499 0.00151058 -0.000913852 
1074 36 3 15.034 2206.7 282.004 -16.9202 0.00483154 0.00277403 0.00106614 
1072 36 1 14.026 2208.69 283.561 -16.5851 0.00281235 0.00167572 -0.00721823 
1326 45 1 14.026 2255.75 279.239 33.1448 -0.000528944 0.002925 -0.00443545 
1324 45 1 14.026 2254.04 277.86 31.806 -0.00136598 0.00412096 0.00426784 
1497 50 1 14.026 2298.44 288.288 29.322 -0.000859545 -0.00496359 0.00429781 
1325 45 1 14.026 2254.29 278.775 33.0232 0.00409426 2.55019e-05 -0.00114621 
1078 36 4 13.018 2204.71 286.273 -14.1519 0.00201018 -0.00364647 0.0010693 
1496 50 1 14.026 2298.99 287.415 28.1136 0.00423657 -0.00151313 -0.00256707 
1495 50 1 14.026 2298.63 285.962 28.4261 0.00321888 -0.0120322 -0.00311829 
2918 98 3 15.034 2397.4 288.146 30.2507 -0.000949375 -0.00475621 -0.00444303 
2917 98 4 13.018 2398.36 288.49 29.1572 0.000819753 0.00475529 0.00195016 
1073 36 4 13.018 2207.28 283.231 -16.1812 -0.0039301 0.000547129 -0.0049255 
3474 116 3 15.034 2301.85 278.45 28.1737 -0.0041142 0.00429945 -0.00866256 
1123 38 3 15.034 1965.1 281.73 -14.2263 0.00612516 0.00270417 -0.00626396 
1118 38 3 15.034 1967.98 282.642 -9.84965 0.00369029 0.00157503 0.003553 
2948 99 3 15.034 2489.87 288.107 38.5622 -0.00129264 0.000131685 0.000390935 
1327 45 4 13.018 2255.93 280.096 34.4406 0.0080331 0.00198533 -0.00279757 
3280 110 1 14.026 1923.08 278.308 38.5369 -0.00207844 -0.000833443 -0.00310025 
1116 38 1 14.026 1966.59 283.893 -8.21319 0.00470825 -0.000916231 0.00626702 
3282 110 4 13.018 1920.75 277.501 38.0517 -0.00315705 -0.00750001 -0.00343384 
2309 77 3 15.034 2350.54 286.198 -10.6862 -0.00194182 -0.00551929 0.00263205 
1121 38 1 14.026 1965.27 281.528 -11.7404 -0.00266282 -0.00656172 0.000468784 
1117 38 4 13.018 1966.56 282.929 -9.42796 0.0124802 -0.00211252 0.00101376 
1115 38 1 14.026 1965.14 284.389 -7.89905 0.00587597 -0.000324826 -0.00146328 
1120 38 1 14.026 1965.6 280.684 -10.4959 -0.00352006 0.00305505 -0.000963326 
1119 38 1 14.026 1965.65 281.676 -9.28168 -0.00218592 -0.00558118 -0.00497505 