ITEM: TIMESTEP
0
ITEM: NUMBER OF ATOMS
3750
ITEM: BOX BOUNDS xy xz yz pp pp pp
1.1125092653907163e+02 1.5874907346092786e+02 0.0000000000000000e+00
1.1125092653907163e+02 1.5874907346092786e+02 0.0000000000000000e+00
1.1125092653907163e+02 1.5874907346092786e+02 0.0000000000000000e+00
ITEM: ATOMS id mol type mass xu yu zu vx vy vz 
3277 110 4 13.018 116.012 168.798 21.2538 -0.00777602 -0.00725729 2.22191e-06 
3597 120 1 14.026 112.498 163.639 19.4057 -0.0018926 0.0025472 -0.00163231 
3285 110 1 14.026 118.828 164.242 19.4671 0.000901112 0.00444517 0.001708 
3290 110 1 14.026 117.629 160.161 18.2292 0.00175277 -0.00546276 0.0117958 
3286 110 1 14.026 119.102 162.762 19.1282 0.00332502 -0.000180338 -0.00292969 
3276 110 1 14.026 114.588 168.34 21.7499 0.00461677 -0.0111609 0.000873942 
3288 110 4 13.018 118.52 160.243 19.4889 -0.0015089 -0.0116104 -0.00151086 
3598 120 4 13.018 113.421 164.221 20.5102 -0.00375 0.00158613 0.00207394 
3596 120 1 14.026 112.607 164.354 18.0651 0.000368779 -0.00122642 -0.000784155 
3289 110 3 15.034 118.218 159.249 20.605 -0.00285758 0.00936276 0.00395349 
3599 120 3 15.034 113.315 163.453 21.8461 0.00429299 -2.80008e-05 -0.000488976 
3278 110 3 15.034 115.897 169.63 19.9378 -0.00128926 -0.0015167 0.00533753 
3291 110 1 14.026 117.507 158.78 17.6078 -0.00277618 -0.000231401 0.000883919 
3282 110 4 13.018 118.894 166.704 18.7817 0.00743825 -0.00160818 0.00304486 
3287 110 1 14.026 118.488 161.672 20.0874 -0.00502071 -0.00138274 -0.00294738 
3280 110 1 14.026 118.426 168.216 20.7979 0.0048453 0.000253014 -0.00142823 
3279 110 1 14.026 117.021 167.721 21.2199 -0.00320099 0.00458904 0.00650093 
3600 120 2 15.034 114.84 164.337 20.0053 0.00204554 0.00589822 0.000394613 
2222 75 4 13.018 111.9 206.59 -29.1126 0.00154619 0.000377225 -0.000180626 
3595 120 1 14.026 111.424 163.947 17.1394 -0.00315027 0.00385887 0.000368288 
2221 75 2 15.034 112.55 207.565 -28.0799 0.00353407 0.00418882 0.000139537 
3292 110 1 14.026 116.302 158.759 16.6101 0.00458208 0.00410492 0.00548774 
1035 35 1 14.026 115.58 167.33 16.2558 -0.00638757 -0.0029909 0.00707288 
3274 110 1 14.026 112.341 168.854 22.9278 -0.00391474 0.00866856 -0.00169611 
3275 110 1 14.026 113.704 169.41 22.3768 0.00214886 -0.00924083 -0.00866982 
2400 80 2 15.034 117.786 163.389 -24.489 -0.00148307 -0.00070009 0.000670455 
3272 110 4 13.018 111.502 169.951 23.5064 0.00674289 0.00235487 0.00187442 
1564 53 1 14.026 113.437 163.625 -21.8307 -0.00236904 0.00884013 0.000951926 
1567 53 4 13.018 113.195 159.787 -20.9643 -0.00170781 -0.00140287 0.00607337 
1562 53 4 13.018 112.758 164.813 -21.1493 0.00466398 0.00038026 -0.00295293 
1566 53 1 14.026 113.791 161.133 -21.4536 -0.00270347 -0.0033109 0.00333641 
2399 80 3 15.034 117.057 165.175 -22.7955 0.00277309 0.00487289 0.00232405 
3373 113 3 15.034 117.853 170.337 -23.2469 -0.000441116 0.000950655 0.0018582 
1568 53 3 15.034 112.501 159.88 -19.5799 -0.000146872 -0.00146903 0.00289062 
1565 53 1 14.026 112.72 162.268 -21.6078 -0.00284244 0.00144775 0.000400242 
1561 53 2 15.034 113.444 166.187 -21.1971 0.00215827 0.000277173 0.00592799 
2398 80 4 13.018 117.779 163.812 -23.021 0.00367872 0.00302275 0.000594733 
3059 102 3 15.034 117.541 159.821 -22.2296 0.00132396 0.00362931 -0.00431693 
3391 114 2 15.034 114.953 163.938 -16.8522 -0.00339464 -5.75717e-05 0.00143462 
3394 114 1 14.026 117.046 164.667 -18.313 -0.00356458 0.000834931 -0.000965748 
3395 114 1 14.026 117.446 165.631 -17.2312 -0.000146329 0.00731401 0.002594 
3397 114 4 13.018 118.917 167.648 -16.6414 -0.00552471 -0.00241013 -0.00492347 
3213 108 3 15.034 114.084 169.379 -15.9742 0.00341354 0.00249272 -0.00503995 
3392 114 4 13.018 116.164 163.502 -17.7225 0.00170033 -0.00323473 0.0011347 
3393 114 3 15.034 115.78 162.373 -18.6667 -0.0015777 0.00446782 -0.00157402 
3396 114 1 14.026 117.981 167.033 -17.6901 -0.00711726 -1.4389e-05 0.00507067 
1953 66 3 15.034 113.052 159.697 -13.9375 -0.00288539 0.00346996 -0.0030571 
3388 113 4 13.018 117.806 163.017 -13.4763 0.00658132 0.0070828 0.00292226 
3215 108 1 14.026 114.974 170.28 -13.5064 -0.00587438 -0.00153586 0.00297322 
3399 114 1 14.026 118.528 167.267 -15.1517 -0.00494387 -0.00303928 0.00438979 
3216 108 1 14.026 115.732 170.205 -12.146 -0.00116085 -0.000203564 0.00159932 
3220 108 1 14.026 114.401 166.88 -10.6471 -0.00131274 -0.00395848 0.0102837 
3217 108 4 13.018 115.104 169.234 -11.1708 0.00475589 0.00246579 -0.00304127 
3218 108 3 15.034 115.792 169.123 -9.78792 -0.00344613 -0.00321774 -0.0026779 
3221 108 1 14.026 113.876 165.475 -11.0028 -0.00668348 0.0037575 0.00116621 
3225 108 1 14.026 114.376 163.117 -7.94912 -0.00255135 -0.000913782 0.00339579 
3223 108 3 15.034 112.334 165.332 -8.97307 -0.0042788 -0.00185462 -0.005483 
3389 113 3 15.034 117.092 163.93 -12.4481 -0.00180367 0.00184388 -0.00207832 
1958 66 3 15.034 116.435 159.716 -10.2798 -0.0047467 0.00278162 -0.00390537 
3390 113 2 15.034 117.653 161.535 -13.0513 -0.00279468 0.00782779 0.000196821 
3224 108 1 14.026 114.593 164.318 -8.88276 -0.00325311 -0.00203055 -0.0141158 
3219 108 1 14.026 114.72 167.902 -11.788 -0.00114361 0.010554 -0.00219022 
3222 108 4 13.018 113.406 164.653 -9.79562 -0.0027873 0.00239692 0.00105765 
1914 64 3 15.034 112.043 159.422 -8.35192 -0.00248595 0.0115717 0.00225121 
1637 55 1 14.026 111.648 170.065 -7.82032 -0.00220271 0.00654282 -0.00124816 
3232 108 1 14.026 117.364 159.197 -3.47914 -0.00408941 -0.00356222 -0.00218357 
1626 55 1 14.026 116.539 164.76 -2.47048 0.000662945 -0.00158035 0.00139368 
3409 114 3 15.034 118.744 167.079 -4.76313 -0.00414402 0.000482954 -0.00164975 
3231 108 1 14.026 117.606 160.649 -3.93591 0.00498573 0.00368264 -0.00130292 
2486 83 1 14.026 112.342 161.552 -2.34921 -0.00577521 0.00935133 0.000130017 
3228 108 4 13.018 117.593 162.316 -5.80423 -0.00152384 -0.00277825 -0.00463126 
1631 55 1 14.026 112.171 165.585 -4.94724 -0.002216 -0.00248404 -0.00721936 
3233 108 4 13.018 117.65 158.936 -1.95237 -0.00110262 -0.00562469 0.00287901 
1630 55 1 14.026 113.128 166.046 -3.80082 -0.00251554 0.00464605 0.00216715 
3229 108 3 15.034 119.133 162.423 -5.93845 0.000830604 0.00183364 -0.00100474 
3227 108 1 14.026 116.834 162.691 -7.08055 -0.000642247 -0.000673804 0.000855391 
1627 55 4 13.018 115.312 165.678 -2.55317 -0.00536306 0.000244734 0.000312641 
2489 83 3 15.034 111.339 161.903 -5.38823 0.00284979 0.000443698 0.00350549 
3226 108 1 14.026 115.352 163.065 -6.8007 0.00353493 -0.00126136 -0.00444847 
1629 55 1 14.026 114.45 165.212 -3.7097 0.00534126 -0.000418144 -0.00415289 
3230 108 1 14.026 117.266 160.908 -5.42193 0.00756006 -0.00398568 -0.000495876 
2461 83 2 15.034 115.952 169.535 -5.98879 0.00371034 -0.000935266 -0.006584 
2487 83 1 14.026 111.828 160.497 -3.3423 0.000574543 -0.000298574 -0.000200923 
1635 55 1 14.026 111.334 168.152 -6.17715 -0.00202849 0.00570115 -0.000735842 
2462 83 4 13.018 116.033 170.553 -4.83899 -0.00399191 -0.00683245 0.00104417 
1625 55 1 14.026 117.296 165.272 -1.23361 -0.00405632 0.00434963 0.0047238 
2483 83 4 13.018 113.785 161.952 -0.350375 -0.00064441 0.000603546 -0.0079786 
3235 108 1 14.026 119.068 159.301 -1.50342 0.00475134 -0.00596349 -0.0051545 
1628 55 3 15.034 114.442 165.825 -1.27609 0.00779676 -0.000950412 -0.00337571 
2485 83 1 14.026 113.526 161.017 -1.53792 0.000317267 -0.00291945 -0.003036 
1624 55 1 14.026 118.43 164.388 -0.761471 -0.00626435 0.000385002 0.00113845 
2484 83 3 15.034 115.158 161.649 0.215172 0.00646326 0.0049822 -0.001571 
2099 70 3 15.034 118.224 170.454 -0.208563 -0.000999414 -0.0036268 0.00352233 
3238 108 4 13.018 118.799 159.549 2.51378 0.00153608 -0.00477469 -0.000454772 
3510 117 2 15.034 116.079 213.956 3.66686 0.00192965 0.0050764 -0.00452054 
2478 83 4 13.018 111.391 164.729 3.19479 -0.00504164 0.0019998 0.00148983 
2475 83 1 14.026 112.439 168.596 2.59344 -0.00804 -0.00231772 -0.000765347 
2098 70 4 13.018 117.496 169.92 1.06552 -0.00604532 -0.00130989 -0.000564942 
3237 108 1 14.026 118.634 159.88 0.99662 0.00172681 0.00155314 0.000850032 
2880 96 2 15.034 112.823 206.812 3.032 0.00448026 -0.000758908 0.000332401 
2481 83 1 14.026 112.547 163.224 1.54946 0.00424204 0.00383637 -0.0059202 
3240 108 2 15.034 118.406 160.798 3.33334 -0.00440812 0.00245839 -0.00574344 
2096 70 1 14.026 116.886 170.475 3.6053 -0.00183823 -0.0010403 -0.00358523 
1622 55 4 13.018 118.975 164.785 0.608492 0.000675847 0.0083734 -0.00698048 
2480 83 1 14.026 111.332 163.38 2.47077 -0.00018011 -0.00556186 0.0079841 
2477 83 1 14.026 111.768 166.026 2.43218 0.00362456 0.0125835 0.00546505 
2100 70 2 15.034 116.09 169.282 0.823416 0.00241929 0.00165439 0.00585043 
2476 83 1 14.026 112.135 167.263 3.27569 -0.00236533 -0.00790663 0.00549027 
2482 83 1 14.026 112.632 161.949 0.654905 -7.47916e-05 0.000379135 -0.00404571 
2474 83 1 14.026 111.648 169.819 3.19182 -6.56518e-05 -0.00616111 -0.000313708 
3505 117 1 14.026 115.469 209.274 5.44868 0.00331126 0.000581105 -0.00350469 
3503 117 4 13.018 115.703 208.179 6.57143 0.00341474 0.00692011 0.0076632 
3509 117 3 15.034 114.88 213.831 5.97176 -0.00640322 -0.00213276 0.0025386 
2060 69 1 14.026 118.574 167.07 7.818 0.000902557 -0.003355 0.00234985 
3507 117 1 14.026 115.297 211.743 4.54808 -0.00285046 -0.00402791 0.00466455 
3508 117 4 13.018 115.765 213.132 4.94012 0.00597804 -0.00352716 0.00509014 
3506 117 1 14.026 115.503 210.805 5.78553 -0.00310093 0.00608655 0.00069353 
2059 69 3 15.034 119.122 164.95 6.66109 -0.000802228 -0.00316171 -0.011285 
3504 117 3 15.034 117.072 208.228 7.34351 0.00336913 -0.00317486 -0.00031146 
2049 69 1 14.026 111.491 163.741 8.03297 0.00678858 -0.000388807 -0.00341741 
2058 69 4 13.018 118.925 165.574 8.00436 -0.00734152 0.00424429 -0.0026367 
3502 117 1 14.026 115.45 206.758 6.04902 -0.00537984 -0.00535989 -0.00118232 
2094 70 3 15.034 114.803 170.028 6.01478 -0.000665852 0.00617714 0.00231794 
2054 69 1 14.026 115.211 164.953 10.267 -0.00197784 -0.00156394 0.00406591 
2050 69 1 14.026 112.692 163.604 8.9127 0.00812043 -0.00556818 -0.00701882 
2051 69 1 14.026 112.701 164.463 10.1712 0.00232232 0.000385545 0.00466028 
2057 69 1 14.026 118.065 164.808 9.03251 -0.00601422 -0.000131662 -0.00304596 
3594 120 3 15.034 111.289 166.17 15.7284 -0.00398393 0.00175122 0.00407224 
1044 35 3 15.034 118.898 161.172 11.2424 -0.00790614 -0.00168799 -2.80583e-05 
1040 35 1 14.026 117.657 163.657 14.6497 0.000549605 -0.000770109 0.00609305 
919 31 3 15.034 115.849 159.536 -35.8354 0.00421274 -0.00119681 0.00221742 
2182 73 1 14.026 119.165 167.878 -34.2821 -0.00220072 0.00189282 -0.00475189 
2181 73 1 14.026 118.804 168.601 -35.6119 0.00272928 0.00022467 0.00686532 
2176 73 1 14.026 114.489 169.679 -36.051 0.00464684 0.00438268 0.00636073 
2056 69 1 14.026 117.725 165.517 10.3214 0.00292585 -0.0031201 -2.53495e-05 
1041 35 1 14.026 118.02 162.599 13.6779 0.000342391 0.00248171 0.00317149 
2053 69 3 15.034 113.906 164.988 12.3747 0.00662916 -0.00109415 -0.00438102 
1038 35 4 13.018 116.152 163.615 14.8707 -0.00239826 0.00369371 0.00679102 
915 31 1 14.026 111.593 159.897 -35.1503 0.002668 0.00154681 0.00766895 
2178 73 4 13.018 116.932 169.998 -36.8524 0.00518302 0.00709322 -0.00504165 
1036 35 1 14.026 115.923 166.175 15.3019 0.00333814 0.000656879 0.00215126 
1034 35 1 14.026 115.675 168.719 15.5442 0.000201827 0.00284586 -0.000713373 
2175 73 1 14.026 113.062 170.301 -35.9163 0.00206481 0.00358899 0.00415855 
2055 69 1 14.026 116.51 164.934 11.0744 -0.00190872 0.00460096 -0.0050742 
1037 35 1 14.026 115.771 164.746 15.87 -0.000907013 -0.00318633 0.000676452 
2052 69 4 13.018 114.024 164.336 10.9616 0.000705397 0.00131375 0.00629174 
916 31 1 14.026 112.978 160.575 -34.9617 0.00153839 -0.00460779 0.00682428 
2180 73 1 14.026 117.46 169.353 -35.5397 0.00168231 0.00344865 0.00541858 
917 31 1 14.026 113.73 160.743 -36.3266 0.000315591 0.00337356 -0.00382368 
1039 35 3 15.034 115.749 162.226 15.3191 -0.00786524 -0.000763213 -0.00285768 
2174 73 1 14.026 112.021 169.469 -35.1643 0.000838692 -0.000855437 -0.00503146 
1033 35 3 15.034 113.444 169.972 15.8794 -0.0044069 -0.0017558 0.00129301 
918 31 4 13.018 114.717 159.625 -36.7885 0.00442585 -0.000228958 0.0108788 
1032 35 4 13.018 114.932 169.886 16.2078 -0.00332515 0.00122282 0.00309578 
3593 120 4 13.018 111.387 164.657 15.718 0.00456485 -0.00139663 -0.000465588 
3367 113 4 13.018 118.386 174.465 -26.9407 -0.00803521 0.001015 -0.00731002 
1024 35 1 14.026 112.425 175.989 17.9412 0.000971921 -8.04209e-05 0.0094125 
3559 119 3 15.034 115.728 177.917 20.8913 -0.00845654 0.00185004 -0.00204356 
3369 113 1 14.026 118.659 174.39 -25.4537 0.00083495 0.00786419 0.00316963 
3562 119 1 14.026 116.516 181.607 17.3586 -0.0019839 0.00202616 0.00512804 
3561 119 1 14.026 117.018 180.844 18.583 0.00366494 -0.00291193 0.00458381 
3558 119 4 13.018 116.536 179.209 20.4813 -0.000251908 0.00128174 -0.000693475 
2104 71 1 14.026 113.139 181.686 -26.3519 0.00243391 0.00328685 0.00118268 
2102 71 4 13.018 112.124 181.265 -27.4651 -0.00478785 0.00397665 -0.00115185 
3560 119 1 14.026 116.268 179.585 19.0058 0.0055163 0.00429203 -0.000306706 
3557 119 1 14.026 116.592 180.317 21.517 -0.00190305 -0.00411184 0.00153925 
1025 35 1 14.026 113.094 176.731 16.7293 -0.00255421 0.0115789 0.000717834 
1843 62 3 15.034 111.524 172.429 -29.0457 0.00399398 0.00197931 0.00261278 
1027 35 4 13.018 115.077 175.101 16.8139 -0.000999614 0.00170147 0.00253748 
3366 113 1 14.026 118.985 173.332 -27.7916 -0.00289337 -0.00269698 -0.000736185 
2101 71 2 15.034 112.674 181.211 -28.8671 0.00191743 0.00376357 0.00197278 
3365 113 1 14.026 118.903 173.601 -29.3113 -0.00322504 0.00512978 -0.00316992 
1028 35 3 15.034 116.215 176.145 17.0086 -0.00125129 -0.00494437 0.00872752 
3368 113 3 15.034 118.697 175.825 -27.5438 0.00502996 -0.000498762 0.00196403 
1030 35 1 14.026 114.784 172.471 16.4956 -2.9085e-06 0.00500345 0.0083114 
1022 35 4 13.018 111.782 176.889 19.0186 0.000835708 0.0112194 -0.0010156 
1021 35 2 15.034 111.32 176.154 20.3029 0.000936765 -0.00546838 -0.00259215 
3556 119 1 14.026 117.733 179.954 22.4754 -0.00127756 0.00344165 -0.00253507 
3370 113 1 14.026 118.554 172.897 -25.0475 0.00194397 0.00100195 -0.00172795 
2105 71 1 14.026 112.923 181.241 -24.9197 -0.00026315 0.00714551 0.00349969 
3181 107 2 15.034 112.779 174.11 -24.2783 0.00401437 -0.00128064 0.00106928 
3371 113 1 14.026 118.834 172.6 -23.5651 -0.00294175 -0.0022874 -0.00266658 
3184 107 1 14.026 114.953 175.114 -23.4798 -0.000538134 0.00235144 0.00450841 
3555 119 1 14.026 118.309 181.122 23.3152 0.00172904 -0.000256396 0.00108379 
2106 71 1 14.026 113.958 181.681 -23.8772 0.00328311 -0.00805501 -0.00602706 
2108 71 3 15.034 113.79 179.478 -22.9031 0.00509012 -0.0039977 0.00625261 
2140 72 1 14.026 112.311 176.07 -20.2086 0.00316234 0.00108303 -0.00216984 
3188 107 3 15.034 117.23 178.044 -20.5951 0.00188913 0.00265847 -0.00190638 
3187 107 4 13.018 117.792 177.158 -21.7084 -0.00512026 0.00679493 0.000457165 
2109 71 1 14.026 115.269 181.292 -21.8197 -0.0073123 -0.00399879 -0.00172472 
3372 113 4 13.018 119.118 171.153 -23.2757 0.00786789 0.0018479 0.00423435 
2107 71 4 13.018 113.953 180.973 -22.5837 -0.00101086 0.00401788 -0.00255881 
3185 107 1 14.026 115.859 175.488 -22.3082 0.00537782 -0.0051129 0.00154151 
3189 107 1 14.026 118.756 176.115 -21.0757 -0.000715333 -0.00393996 -0.00908904 
3183 107 3 15.034 114.311 172.798 -22.6992 0.0013725 3.32192e-05 0.0021691 
3182 107 4 13.018 113.796 174.134 -23.1595 -0.000288001 0.00526 -0.0012573 
3186 107 1 14.026 116.697 176.705 -22.6649 -0.00104779 -0.00312066 0.000981787 
2141 72 1 14.026 111.383 176.962 -21.0632 0.00465948 0.0027466 -0.000267349 
2111 71 1 14.026 116.408 182.492 -20.0691 -0.00444799 -0.00414851 0.000463138 
2138 72 3 15.034 114.877 175.173 -18.7519 0.00395039 -0.00205344 0.00449693 
1057 36 4 13.018 113.57 180.297 -17.2592 -0.00573729 0.00270656 -0.0100403 
2253 76 3 15.034 118.299 178.597 -16.3078 0.000803435 0.000856691 0.00136231 
1058 36 3 15.034 114.729 180.048 -18.2219 -0.0025683 -0.00464268 -0.00720707 
1059 36 1 14.026 112.592 181.407 -17.6415 -0.00208851 0.00134693 0.000993181 
2139 72 1 14.026 113.16 176.974 -19.3387 0.000903513 0.000157175 -0.00552492 
2136 72 1 14.026 112.857 175.746 -17.1368 0.00137104 0.00169366 -0.00370678 
1056 36 1 14.026 114.04 180.426 -15.7814 -0.00334584 -0.0032126 -0.00294191 
2137 72 4 13.018 113.874 176.243 -18.2246 -0.00116897 0.00322652 -0.00107653 
2252 76 4 13.018 118.163 177.086 -16.2634 -0.00412793 -0.00355719 0.00392532 
1060 36 1 14.026 112.073 181.286 -19.0095 -0.00264018 -0.00385303 0.00557484 
2135 72 1 14.026 111.871 176.746 -16.6152 0.00681991 0.00507726 -0.00262285 
3211 108 2 15.034 114.74 171.484 -17.2141 -0.00240695 0.00380748 0.000309988 
3212 108 4 13.018 114.508 170.844 -15.7732 0.00237361 5.52792e-07 0.00875155 
3214 108 1 14.026 115.594 171.084 -14.6706 0.00559756 -0.00448098 -0.00297635 
1055 36 1 14.026 112.82 180.778 -14.8574 -0.00110203 -0.002962 -0.0025129 
2251 76 2 15.034 117.096 176.455 -15.3393 -0.00366001 0.00032676 0.00547111 
3645 122 1 14.026 117.946 173.38 -9.30654 -0.00287923 0.000152129 0.00140361 
1258 42 4 13.018 111.883 176.506 -11.5513 -0.00470688 0.00203478 0.00334837 
1256 42 1 14.026 112.247 177.991 -9.3776 -0.0053628 0.0010736 -4.5166e-05 
3639 122 1 14.026 116.916 178.49 -11.0024 -0.00564162 -0.00149555 0.00100779 
3641 122 1 14.026 116.462 176.013 -10.6935 -0.00206391 -0.0060274 0.00215236 
1259 42 3 15.034 113.011 176.826 -12.5521 3.94492e-05 0.00465104 0.00604083 
3636 122 1 14.026 117.55 180.979 -10.7111 -0.00614179 0.00713211 4.13752e-05 
3644 122 1 14.026 116.665 173.494 -10.1999 0.0022073 -0.00317873 -0.00115025 
1257 42 1 14.026 112.205 176.594 -10.0084 -0.00408495 0.00228047 -0.00410654 
1255 42 1 14.026 112.252 177.983 -7.84047 0.00498538 -0.00618717 0.00537687 
3642 122 4 13.018 116.628 174.536 -11.2746 0.00113417 -0.00425394 -0.00150108 
3646 122 1 14.026 118.97 172.288 -9.78144 0.00169585 0.0046482 -0.0056325 
3637 122 4 13.018 117.761 179.692 -11.5283 -0.00568647 0.000147947 -0.0031801 
1054 36 1 14.026 113.298 180.773 -13.3745 -0.00277562 0.00515277 -0.0044457 
1051 36 2 15.034 112.92 181.432 -10.9101 0.00411709 -0.000548465 -0.00112527 
1640 55 1 14.026 111.401 171.885 -9.65589 0.00100578 0.000650282 -0.00507729 
3640 122 1 14.026 117.377 177.063 -11.4207 -0.00276878 -0.00352312 -0.00077457 
1052 36 4 13.018 112.303 181.294 -12.3163 0.00785009 0.0044443 -0.000379686 
3643 122 3 15.034 115.787 174.261 -12.5106 0.00126228 -0.0020496 0.00338462 
3635 122 1 14.026 117.827 182.266 -11.4742 -0.00120755 0.00264952 0.00190788 
1250 42 1 14.026 111.738 180.892 -3.55676 -0.00704744 -0.00236014 0.000303502 
2466 83 1 14.026 114.187 173.011 -2.47685 0.000330434 -0.00647961 -0.000232347 
2634 88 3 15.034 115.166 175.452 -5.03899 0.00440557 0.00363977 0.00169766 
1988 67 3 15.034 111.437 175.41 -3.37722 0.00196568 -0.00685191 -0.0097287 
2463 83 3 15.034 117.129 171.618 -4.99254 -0.00367682 -0.000673862 0.00219469 
2632 88 1 14.026 116.007 177.498 -3.80463 0.00325921 0.00287937 -0.00105321 
1639 55 3 15.034 111.689 172.605 -7.25036 -0.00630702 -0.00614746 0.00383352 
2631 88 1 14.026 114.921 178.142 -2.95256 0.00645328 -0.0034816 -0.00681357 
1253 42 4 13.018 112.002 179.356 -7.19408 -0.00180559 -0.00130637 -0.004667 
1252 42 1 14.026 111.959 179.325 -5.67529 0.00329594 0.000321232 -0.00178111 
2636 88 1 14.026 117.081 178.657 -6.12539 0.00400377 0.00494551 -0.000419625 
2635 88 1 14.026 116.703 177.167 -6.15234 0.00731289 0.00781391 -0.000759186 
2639 88 3 15.034 115.573 182.295 -6.75307 -0.00378063 0.0040888 0.00274242 
2633 88 4 13.018 115.549 176.919 -5.17174 0.00624302 -0.00288869 -0.000401566 
2465 83 1 14.026 115.179 171.91 -2.94225 -0.001951 -0.00738427 0.00140048 
2637 88 1 14.026 116.108 179.767 -6.48219 0.00108186 -0.00404264 0.00322543 
2464 83 1 14.026 114.863 171.356 -4.39096 0.000276057 -0.00364745 0.000384811 
2638 88 4 13.018 116.422 181.208 -6.0127 0.000502448 -0.0014177 0.000579197 
2640 88 2 15.034 116.541 181.392 -4.49986 -0.00785483 0.00139638 0.000140233 
1251 42 1 14.026 112.154 180.711 -5.05719 -0.00506878 -0.000540797 -0.0054009 
2627 88 1 14.026 114.354 180.681 -0.542982 -0.000436978 0.00592457 0.00338462 
2467 83 4 13.018 114.586 173.551 -1.06606 0.00353733 0.00219856 0.0066527 
2630 88 1 14.026 115.462 178.448 -1.53408 0.00303652 -0.00616874 -0.00640451 
2628 88 4 13.018 114.467 179.098 -0.552906 -0.00511305 -0.00736845 -0.00231411 
2468 83 3 15.034 113.96 174.909 -0.668979 -0.00627212 0.00637603 -0.00126389 
2629 88 3 15.034 113.017 178.454 -0.502982 0.0035499 -0.00417899 -0.0028743 
2469 83 1 14.026 114.408 172.556 0.0306533 -0.00380467 -0.00503326 -0.001425 
2470 83 1 14.026 112.953 172.329 0.408354 0.00151506 -2.38496e-05 0.00351497 
3093 104 3 15.034 118.915 180.721 0.337365 -0.000668346 -0.000535852 0.00210397 
292 10 1 14.026 71.3987 175.59 3.951 0.000186727 -0.00559827 0.000338315 
299 10 3 15.034 64.9196 178.484 3.56841 0.00105168 -0.00612313 0.00352682 
297 10 1 14.026 67.0038 177.204 3.31164 -0.0015365 0.00742771 0.00722889 
2471 83 1 14.026 112.836 171.454 1.66427 0.00166128 -0.000272914 0.00263346 
298 10 4 13.018 66.408 178.568 3.66986 0.00172939 -0.00495663 0.0075399 
296 10 1 14.026 68.5229 176.924 3.23985 -0.00156408 0.00411728 0.00257656 
295 10 1 14.026 69.0026 175.51 2.70684 -0.00396079 -0.00347581 0.00497612 
3091 104 2 15.034 118.806 179.882 2.71849 -0.00426485 -0.00298625 -5.86194e-05 
2626 88 1 14.026 113.829 181.251 0.85267 -0.00198512 0.00173784 -0.0038484 
293 10 4 13.018 70.5606 175.517 2.67505 0.00620496 0.00557988 -0.000546052 
2472 83 4 13.018 111.488 170.826 2.04848 0.00581339 -0.00233093 0.00247502 
2097 70 1 14.026 117.284 170.987 2.19512 -0.00160322 0.00376192 -0.00153469 
294 10 3 15.034 71.1002 174.568 1.64157 0.00607032 0.00215411 -0.00409904 
2089 70 3 15.034 117.821 176.193 7.64033 -0.00115697 -0.00529575 -0.00213269 
2095 70 1 14.026 116.195 171.631 4.42395 -0.00281393 0.00290777 0.00776598 
2090 70 1 14.026 115.817 174.507 8.01052 0.00619074 -0.00535781 0.00145188 
2091 70 1 14.026 116.341 173.505 6.96318 -0.00540025 0.000897714 -0.00410319 
2092 70 1 14.026 115.376 172.304 6.82989 0.00312567 -0.00059042 0.00116633 
2093 70 4 13.018 115.77 171.24 5.88152 0.00246589 -0.00422618 0.00321618 
300 10 2 15.034 67.0267 179.205 4.94083 0.00103145 0.000119294 0.00736138 
2088 70 4 13.018 116.262 175.882 7.621 -0.00166185 0.00404465 -0.00063015 
2694 90 3 15.034 117.881 180.826 6.63933 0.00480397 0.00136595 -0.00332517 
2693 90 4 13.018 119.043 180.338 7.57779 -0.00143637 -0.00249988 -0.0032387 
2086 70 1 14.026 113.981 176.88 8.30604 -0.002678 7.77505e-05 -0.00243688 
2179 73 3 15.034 118.012 170.887 -37.5542 0.00383554 -0.00383235 0.00513813 
2692 90 1 14.026 118.66 179.779 8.99442 0.00305539 -0.00154922 0.00245156 
2085 70 1 14.026 113.188 177.923 9.01419 -0.00218283 -0.00149352 0.00859186 
2084 70 1 14.026 111.689 177.93 8.91718 0.00312621 -0.00378433 0.00283264 
2087 70 1 14.026 115.548 176.95 8.388 -0.00686695 -0.00160001 0.00673278 
1835 62 1 14.026 114.41 174.724 -35.0328 -0.00125416 0.00240291 -0.0013778 
3568 119 4 13.018 116.07 181.16 12.4324 -0.00470182 -0.00723635 -0.00963056 
3570 119 2 15.034 115.254 180.063 13.1672 0.00144602 -0.00101911 0.00253803 
3567 119 1 14.026 116.293 182.415 13.262 -0.00563793 -0.00605344 0.00403963 
3569 119 3 15.034 115.587 181.589 11.0188 0.00242538 7.86453e-05 0.00391919 
1833 62 3 15.034 118.262 174.395 -35.5212 0.00396328 -0.00211211 -0.00158204 
1836 62 1 14.026 113.339 173.848 -34.4318 -0.00655908 -0.00291305 0.00075385 
1834 62 1 14.026 115.796 174.071 -35.0308 -0.00340053 -0.000923812 0.00073372 
3566 119 1 14.026 116.889 182.116 14.5957 0.00113735 0.00449818 -0.000766139 
1832 62 4 13.018 116.869 175.002 -35.5729 -0.00899188 -0.00697305 -0.00777834 
1831 62 2 15.034 116.874 176.443 -35.0851 0.0031916 -0.00780681 0.000272043 
1026 35 1 14.026 113.937 175.603 16.0015 0.00213513 0.00230369 -0.00447583 
2078 70 3 15.034 111.694 182.143 14.3163 0.00126884 0.0013614 -0.00809124 
1837 62 4 13.018 111.884 174.334 -34.4544 0.00230548 0.00346397 0.00532363 
2079 70 1 14.026 111.654 179.776 13.6841 0.00726649 0.00145887 -0.00394492 
1838 62 3 15.034 111.372 174.6 -35.8302 -0.00178459 0.0044505 0.00349058 
2081 70 1 14.026 111.637 178.734 11.3196 0.000586421 0.00300288 -0.00654662 
1031 35 1 14.026 115.493 171.246 15.8534 -0.00679474 -0.00168881 0.000738863 
2177 73 1 14.026 115.555 170.669 -36.6345 -0.00366415 0.000511682 0.00673407 
1029 35 1 14.026 115.615 173.751 16.253 -0.0108911 -0.00564763 -0.00212537 
3334 112 1 14.026 116.19 186.485 -25.8619 -3.8325e-05 -0.00340745 -3.84702e-06 
1074 36 3 15.034 113.715 185.252 -29.201 0.00806968 -0.00834557 0.00397051 
2955 99 1 14.026 119.112 193.864 18.8558 -0.00437412 0.00089069 -0.000482254 
3564 119 3 15.034 117.469 183.888 17.9295 0.00573525 0.00409084 -0.00551024 
3332 112 4 13.018 117.009 187.388 -26.818 -0.000811384 -0.00148486 0.00338502 
3333 112 3 15.034 118.352 187.933 -26.3071 -0.00143136 -0.00202794 0.00527769 
3331 112 2 15.034 116.2 188.363 -27.6628 0.00681562 -0.00348399 0.00130013 
1073 36 4 13.018 112.465 185.911 -29.7752 -0.00290653 0.00665375 -0.00162245 
2944 99 1 14.026 118.477 188.29 16.3746 -0.00421023 0.00195471 -0.00114222 
3693 124 3 15.034 111.935 189.645 22.0379 -0.00191328 0.00663184 -0.000274298 
2517 84 1 14.026 112.267 191.058 17.1164 0.00147465 0.00364911 -0.00576251 
1072 36 1 14.026 111.62 186.643 -28.7095 0.0023345 0.00686594 0.0016232 
1075 36 1 14.026 112.812 186.778 -30.952 -0.00338783 -0.00618332 -0.000438448 
2959 99 3 15.034 114.816 193.679 18.0107 0.00332789 -0.0029866 -0.00678955 
3563 119 4 13.018 117.384 182.759 16.9715 0.00502999 0.00119221 0.00270082 
2238 75 4 13.018 113.716 192.624 -24.4321 0.00363984 0.00349137 -0.0064844 
2242 75 1 14.026 117.369 191.444 -24.6886 0.00572353 0.00814269 0.00462965 
2240 75 1 14.026 114.913 191.694 -24.5845 0.000405405 -0.00417566 -0.00322495 
3335 112 1 14.026 115.566 187.187 -24.6505 0.00459936 0.00246267 -0.00610403 
3336 112 1 14.026 114.656 186.316 -23.8137 0.00376977 -0.00146687 0.000782406 
2243 75 4 13.018 118.689 191.626 -23.8963 -0.000141187 0.00469523 0.000349024 
2237 75 1 14.026 113.867 194.008 -25.0964 0.00228397 0.00477354 -0.00628269 
2241 75 1 14.026 116.23 192.236 -23.9878 -0.00529435 0.00451399 0.00693371 
3341 112 1 14.026 115.184 189.507 -19.915 0.000674929 0.0024174 0.000260816 
2112 71 4 13.018 116.717 183.826 -19.466 -0.00360981 -0.00269238 -0.00307518 
2239 75 3 15.034 113.223 192.638 -22.9625 -0.00115166 0.000547878 -0.00117893 
3337 112 4 13.018 113.923 186.991 -22.6549 2.4346e-05 0.00193184 -0.00572763 
3343 112 3 15.034 113.001 190.906 -19.4728 0.00353996 0.00278093 0.00457611 
3340 112 1 14.026 114.332 188.385 -20.515 -0.0105201 0.000981041 -0.00755919 
2110 71 1 14.026 115.264 182.658 -21.1311 -0.00306788 -0.00125471 -0.00458525 
3339 112 1 14.026 114.972 187.641 -21.7172 0.00318804 -0.00171238 0.000296302 
2113 71 3 15.034 117.248 184.734 -20.6011 0.000587133 0.00345611 -0.00511862 
3338 112 3 15.034 113.105 186.047 -21.7507 0.000343696 0.00320342 -0.0021304 
2130 71 2 15.034 118.622 188.338 -21.7708 0.00935835 -0.00268689 0.00173274 
2244 75 3 15.034 118.824 193.09 -23.3116 0.000644069 0.00466395 -0.00487808 
2782 93 1 14.026 112.374 185.547 -15.5067 -0.00363145 0.0040877 0.00533088 
2114 71 1 14.026 117.534 183.847 -18.1897 0.00550832 -0.00771587 0.00616416 
2789 93 3 15.034 118.18 188.685 -17.9017 0.00457864 -0.00927639 0.00322191 
2787 93 1 14.026 117.102 187.176 -15.9607 0.00334691 0.000301565 0.00176187 
2785 93 1 14.026 114.731 186.072 -16.056 0.000726153 0.00551461 -0.00125949 
3344 112 1 14.026 115.1 191.364 -18.1305 -0.0010271 0.00713033 -0.00195267 
2783 93 4 13.018 113.28 186.249 -16.5255 0.00473754 -0.00102813 0.00373075 
2115 71 1 14.026 117.032 182.995 -16.9617 0.00274163 0.00683317 -0.00221027 
2784 93 3 15.034 113.027 185.561 -17.856 -0.000179974 -0.00416476 -0.000224031 
3345 112 1 14.026 114.336 192.192 -17.0991 -0.00133261 0.00299411 0.00719762 
3347 112 1 14.026 115.735 194.312 -17.7482 -0.00474728 -0.00467773 -0.00130912 
3342 112 4 13.018 114.323 190.325 -18.8938 -0.000566431 -0.00545797 -0.00285015 
2788 93 4 13.018 117.912 188.417 -16.3843 0.00167118 0.00404039 -0.00123214 
2786 93 1 14.026 115.683 187.147 -16.5905 1.24852e-05 -0.000172906 0.00784416 
3346 112 1 14.026 115.194 193.379 -16.6457 0.00605533 0.00381738 0.00013654 
2116 71 1 14.026 118.138 183.055 -15.8826 -0.00109051 0.00463646 -0.0012092 
2218 74 4 13.018 117.995 192.532 -13.6562 0.00581934 0.00266412 -0.000519639 
2214 74 3 15.034 113.643 189.489 -14.1047 -0.00150042 0.00533806 5.53524e-05 
3631 122 2 15.034 116.246 184.628 -12.4705 -0.00308186 -0.00249814 -0.00802047 
679 23 3 15.034 66.8556 191.424 -8.00535 -0.00602619 0.00109348 -0.00115307 
2210 74 1 14.026 111.872 186.163 -11.438 0.00567712 -0.00679766 -0.00903165 
3634 122 1 14.026 117.785 183.588 -10.7125 0.00419162 -0.00248682 -0.00465362 
678 23 4 13.018 68.0998 190.447 -7.9895 -0.00446467 0.00611615 0.00411437 
3632 122 4 13.018 117.474 184.846 -11.5542 0.00329992 0.000798692 -0.000257755 
2215 74 1 14.026 115.803 189.456 -12.7648 0.00181834 0.00181602 -0.000867984 
2213 74 4 13.018 114.281 189.04 -12.8064 0.0012443 0.00373141 0.00790267 
2217 74 1 14.026 117.581 191.182 -13.1406 0.00221724 0.00705164 0.00766262 
3633 122 3 15.034 117.33 186.217 -10.8717 -0.0038239 -0.00491531 0.000238043 
2216 74 1 14.026 116.103 190.915 -13.164 0.00269701 -0.0025387 -0.00429104 
2212 74 1 14.026 113.816 187.687 -12.3118 -0.00319309 0.00197225 -0.00317157 
2211 74 1 14.026 112.278 187.531 -11.9952 -0.00627658 -0.00127432 0.00353334 
680 23 1 14.026 67.5722 188.987 -8.14059 0.00736464 -0.000764232 -8.23588e-05 
2220 74 2 15.034 117.27 193.651 -12.8829 0.00642498 -0.00197455 -0.00208287 
682 23 1 14.026 66.0684 187.145 -7.617 0.00248797 1.385e-05 -0.00412064 
3477 116 1 14.026 118.307 186.99 -2.15254 -0.00254551 -0.00678979 0.00151377 