LAMMPS (10 Feb 2015)
Read molecule SQL:
  30 atoms with 4 types
  29 bonds with 1 types
  34 angles with 1 types
  31 dihedrals with 2 types
  6 impropers with 1 types
Reading restart file ...
  restart file = 10 Feb 2015, LAMMPS = 10 Feb 2015
  triclinic box = (112.837 112.837 112.837) to (157.163 157.163 157.163) with tilt (0 0 0)
  3 by 4 by 4 MPI processor grid
  3750 atoms
  3625 bonds
  4250 angles
  3875 dihedrals
  750 impropers
250 atoms in group endatoms
60 atoms in group samplechains
Resetting global state of Fix shear1 Style nvt/sllod from restart file info
Neighbor list info ...
  1 neighbor list requests
  update every 1 steps, delay 0 steps, check yes
  master list distance cutoff = 10.3
Setting up run ...
Memory usage per processor = 4.6967 Mbytes
Step dummytim Temp Volume Press Density PotEng TotEng Pxx Pyy Pzz Pxy Pyz Pxz myT 
610000000      6.1e+08    286.07786    87095.841    9047.8025      1.00761   -761.68631    2435.2501    8300.6252    9049.1467    9793.6355   -875.32214   -113.83773   -17.941966     286.0771 
610010000   6.1001e+08    295.85551    87095.841    8696.9488      1.00761   -833.38826    2472.8139     7081.217    9709.6091    9300.0204   -960.02409   -466.07461    391.37027    295.85528 
610020000   6.1002e+08    295.14742    87095.841    8750.7572      1.00761   -815.00063    2483.2886    8142.8216    10233.518    7875.9319   -1812.1805   -636.01269      629.258    295.14836 
610030000   6.1003e+08    292.86906    87095.841    8867.5159      1.00761   -809.49267    2463.3357    8897.5811    8642.5093    9062.4573   -1954.6452    129.75289   -717.18452    292.86923 
610040000   6.1004e+08     294.9764    87095.841    10067.872      1.00761   -868.94491    2427.4331    10392.041    10692.364    9119.2107   -934.85479    269.29424   -60.187769    294.97738 
610050000   6.1005e+08    290.81078    87095.841    9386.7908      1.00761   -784.98297     2464.844    8496.9803    9836.2263    9827.1657   -1710.4818     796.7064    -23.07978    290.80865 
610060000   6.1006e+08    295.96756    87095.841    8834.2428      1.00761   -774.96737     2532.487    7132.1031    9372.5559    9998.0692   -748.15331    84.656406   -149.30224    295.96766 
610070000   6.1007e+08    291.84656    87095.841     9587.553      1.00761   -820.70045    2440.7014    9449.7064    9861.0056     9451.947   -804.95263   -205.86142    -316.6086     291.8475 
610080000   6.1008e+08    289.82974    87095.841    9488.0149      1.00761   -815.54496    2423.3189    7905.4163    11326.665    9231.9632   -657.32264    8.6271689    58.168533    289.82932 
610090000   6.1009e+08    292.59168    87095.841    9187.7358      1.00761   -882.49924    2387.2294    8656.1269    9372.5365     9534.544   -1253.0796    100.40563    443.42884    292.59256 
610100000    6.101e+08    295.74618    87095.841     9477.375      1.00761   -827.66961    2477.3108    9005.0486    10274.331     9152.745   -624.82641    51.703033    712.21685    295.74731 
610110000   6.1011e+08    291.52894    87095.841    9050.8486      1.00761   -788.03186    2469.8206    9287.8756    8472.6503    9392.0199   -1143.4002   -333.96369    -41.33286    291.52857 
610120000   6.1012e+08    290.30047    87095.841    8876.5987      1.00761   -827.14974    2416.9745     7938.266    9367.0492     9324.481   -1359.8463    -74.85378    740.76992    290.30134 
610130000   6.1013e+08    293.06721    87095.841    8773.1469      1.00761   -771.00458    2504.0382    8488.3005     9136.435    8694.7053   -791.01219   -206.78995    598.26759      293.066 
610140000   6.1014e+08    285.76511    87095.841    9302.9546      1.00761   -803.30943     2390.132    8148.2815    10041.368    9719.2139   -1736.1584    921.30693    29.139774     285.7647 
610150000   6.1015e+08      289.108    87095.841     9134.534      1.00761   -831.75114    2399.0472    8324.0377    10633.053    8446.5113   -1431.4917    149.12878    338.70413    289.10606 
610160000   6.1016e+08    300.61917    87095.841    9382.2815      1.00761   -718.16667    2641.2696    8950.0611    10307.207    8889.5764   -1141.6559   -195.46415    372.93712    300.62136 
610170000   6.1017e+08    300.10401    87095.841    9580.6689      1.00761   -781.45353    2572.2258    8521.7306    9914.0729    10306.203   -1252.0011    -824.1634    766.46615    300.10544 
610180000   6.1018e+08    289.77565    87095.841    8989.3952      1.00761    -804.8419    2433.4175    7807.9948    9089.6603     10070.53   -807.44083   -120.35474    460.57955    289.77482 
610190000   6.1019e+08     292.2426    87095.841    9832.8421      1.00761   -908.52643    2357.3012    9511.3378    10465.388    9521.8004   -737.60339   -127.70036    66.908109    292.24229 
610200000    6.102e+08    300.08808    87095.841    9317.5493      1.00761   -788.96591    2564.5354    8145.7111    10009.483    9797.4541   -657.38405   -62.552505   -144.72414    300.08769 
610210000   6.1021e+08    293.32879    87095.841    8578.0362      1.00761   -819.37331    2458.5926    7489.0013    9107.0387    9138.0685   -1442.5347   -583.47998   -449.45213    293.32927 
610220000   6.1022e+08    299.99875    87095.841    9050.7394      1.00761   -728.53614    2623.9669    7985.4704    10594.862    8571.8863   -1585.1687     231.2232    429.27104    299.99827 
610230000   6.1023e+08    291.17436    87095.841    9217.6048      1.00761   -828.52372    2425.3663    9382.4218     9632.016    8638.3766   -1526.2747    -297.8624    492.79237    291.17361 
610240000   6.1024e+08    292.41855    87095.841     8276.915      1.00761    -775.5568    2492.2371    6711.1815     8449.137    9670.4266   -2336.3003   -42.051584   -968.57061    292.41754 
610250000   6.1025e+08    303.54154    87095.841      10058.2      1.00761   -801.47944    2590.6145    10031.881    10597.334    9545.3843     -766.117   -61.246896   -21.826572    303.54176 
610260000   6.1026e+08    294.70188    87095.841    8906.7213      1.00761   -835.55854    2457.7518    8757.1617    9520.9756    8442.0267   -947.23047   -92.998733    417.83167    294.70196 
610270000   6.1027e+08     291.2523    87095.841    9672.5552      1.00761    -862.8732    2391.8878    9324.6579    10003.368    9689.6398   -1126.8476   -718.89036   -729.58667     291.2516 
610280000   6.1028e+08    294.13406    87095.841     9130.528      1.00761   -886.86067    2400.1042    8229.6822    10214.654    8947.2474   -1357.6568    -445.4121    123.04965    294.13559 
610290000   6.1029e+08    292.42502    87095.841    8226.0811      1.00761   -840.82422     2427.042    7455.1901    8552.1027    8670.9504   -1697.7952   -447.15902   -173.91921    292.42522 
610300000    6.103e+08    297.90925    87095.841    8943.7803      1.00761   -831.60714    2497.5457    7080.7011    9568.6833    10181.956   -1139.3392   -349.25972    215.61861    297.90809 
610310000   6.1031e+08    287.65651    87095.841    9267.3056      1.00761   -878.36286     2336.215    8981.5285    9544.0644    9276.3238   -1366.4418   -548.43066   -160.03043    287.65784 
610320000   6.1032e+08    293.44982    87095.841     8278.065      1.00761   -869.81087    2409.5076    7689.9921    9464.6181    7679.5847   -386.14049     495.9927   -2.7874848     293.4507 
610330000   6.1033e+08    294.60381    87095.841    9084.9983      1.00761   -851.29744    2440.9169    8504.0679    9997.1945    8753.7327   -996.05671   -522.31714    473.96251    294.60133 
610340000   6.1034e+08    297.74185    87095.841    7660.0963      1.00761   -852.79793    2474.4842    7043.9503    8346.5514    7589.7871   -916.34085   -671.17899     925.8935    297.74107 
610350000   6.1035e+08     288.1638    87095.841    9430.9125      1.00761   -865.21456    2355.0323    9457.8762    10206.735    8628.1263   -1040.3444    -489.1853   -152.14835    288.16598 
610360000   6.1036e+08    294.26507    87095.841    8857.9048      1.00761   -849.26963    2439.1592    7836.2821     9497.849    9239.5834   -608.55695    -782.9016   -920.72452    294.26529 
610370000   6.1037e+08    299.60388    87095.841    9896.3677      1.00761   -874.88229    2473.2081    10484.021    9786.7237    9418.3578   -1434.5389   -75.221157    387.92851    299.60254 
610380000   6.1038e+08    293.00945    87095.841    8760.9296      1.00761   -852.18795    2422.2093    8085.5854    9164.2624    9032.9411   -912.77425   -724.74674    153.87428    293.00889 
610390000   6.1039e+08    297.03087    87095.841    10139.538      1.00761   -779.65897    2539.6779    9867.8425    11093.075    9457.6954   -1257.7508   -371.38108    180.08417    297.03076 
610400000    6.104e+08    289.73308    87095.841    9902.2533      1.00761   -820.53195    2417.2517    8834.4035    11166.924    9705.4322   -1542.7348   -406.74981     731.2564    289.73322 
610410000   6.1041e+08    289.24527    87095.841    9264.3755      1.00761   -774.55893    2457.7734    9681.0166    8996.5708    9115.5389   -1679.6831   -862.47701    420.16847    289.24546 
610420000   6.1042e+08    290.74902    87095.841    9457.0941      1.00761   -811.44303    2437.6938    9142.1659      9526.06    9703.0563   -441.94648   -366.38825   -386.50146    290.74937 
610430000   6.1043e+08    289.51789    87095.841     8973.726      1.00761   -828.98576    2406.3931    7970.5275     10426.46    8524.1901   -522.44162      450.274   -20.494273    289.51656 
610440000   6.1044e+08    295.40621    87095.841    8274.3369      1.00761   -828.25517     2472.926    8349.1578     8326.437     8147.416   -1575.7482    527.67935    -352.8712    295.40739 
610450000   6.1045e+08    294.21996    87095.841    9089.6299      1.00761   -888.74376    2399.1811      9162.81    9442.2961    8663.7837   -996.81804    -177.1535     614.9008    294.21922 
610460000   6.1046e+08    287.13546    87095.841    7961.5139      1.00761   -854.30427    2354.4508    7527.7288    8428.2308     7928.582   -967.49469   -1109.0212    93.173602    287.13495 
610470000   6.1047e+08     300.5242    87095.841     7936.282      1.00761   -716.60775    2641.7673    6922.5526    8868.7679    8017.5257   -2274.2525    742.39452    319.68196    300.52487 
610480000   6.1048e+08    292.45193    87095.841    8923.8477      1.00761   -858.18317    2409.9838    8805.4325    8969.9063    8996.2044   -939.02614   -623.91529   -600.48264    292.45235 
610490000   6.1049e+08    296.27417    87095.841     9257.324      1.00761   -839.37742    2471.5033    8441.7242    9789.5625    9540.6853   -1996.5134   -234.23199    588.45527    296.27638 
610500000    6.105e+08    291.08742    87095.841    8438.5112      1.00761   -891.62077    2361.2977    6620.8618    9671.0467    9023.6251   -1881.4785   -248.12837   -180.68425    291.08779 
610510000   6.1051e+08    300.09543    87095.841    9252.2537      1.00761   -792.29153     2561.292    7905.8339    9742.0723    10108.855   -1854.0144    302.88504    269.16064    300.09546 
610520000   6.1052e+08    287.24481    87095.841    9559.9246      1.00761   -798.61724    2411.3599    9654.5115     10653.27    8371.9922   -764.90226   -101.04099    309.25652    287.24637 
610530000   6.1053e+08    298.89516    87095.841    9458.0857      1.00761   -915.72099    2424.4495    8630.0517    9623.7785    10120.427   -1029.1214   -233.88123   -52.695212    298.89412 
610540000   6.1054e+08    301.85804    87095.841    7848.3663      1.00761   -781.31387    2591.9669    7175.2158    8028.5324    8341.3508   -1265.1758   -683.23904   -435.64979    301.85777 
610550000   6.1055e+08    291.76319    87095.841    9059.3817      1.00761   -767.34751    2493.1228    8221.9536    9812.7317    9143.4598   -944.65518   -455.90079     434.9696    291.76381 
610560000   6.1056e+08    290.35751    87095.841    8618.5108      1.00761   -780.10274    2464.6589     7793.211    9580.1491    8482.1724   -1043.7987   -953.84425   -361.23765    290.35759 
610570000   6.1057e+08    288.98443    87095.841    9520.8917      1.00761   -799.70557    2429.7119    8113.8093    10347.285    10101.581   -1071.8695   -553.97287    121.13895    288.98561 
610580000   6.1058e+08    295.22002    87095.841    9160.3423      1.00761   -767.83041    2531.2701    8422.3653    10241.532    8817.1301   -1371.2556   -88.126281    43.066655    295.21954 
610590000   6.1059e+08    295.90783    87095.841    9203.0557      1.00761   -867.64208    2439.1448    9129.6185    8682.9042    9796.6443   -1560.2222     249.2161    50.435954    295.90813 
610600000    6.106e+08     289.6941    87095.841    9002.6946      1.00761   -919.87882    2317.4693    8217.8097    9751.7863    9038.4878   -2002.7943   -1111.4379   -258.46861    289.69477 
610610000   6.1061e+08    295.39735    87095.841    9156.8405      1.00761   -802.21208    2498.8701    9070.9372    9639.6397    8759.9447   -2429.9485   -395.86529    11.063476    295.39777 
610620000   6.1062e+08    290.86376    87095.841    9287.0667      1.00761   -821.78152    2428.6376    8931.5007    9203.7567    9725.9426   -771.35586   -206.78718    167.30373    290.86316 
610630000   6.1063e+08    292.04486    87095.841    9060.1488      1.00761   -855.85753    2407.7604     9317.316    9079.9276    8783.2029   -1080.5678    275.17966   -386.11403    292.04364 
610640000   6.1064e+08    287.96596    87095.841    9342.1914      1.00761   -795.02354    2423.0125     8321.456    10122.579    9582.5391   -965.22408   -952.01159    294.19226    287.96787 
610650000   6.1065e+08    295.16448    87095.841    9330.3702      1.00761   -902.12506    2396.3548    7969.0563    10438.236    9583.8182   -1255.4494    354.10406    553.25089    295.16407 
610660000   6.1066e+08    295.35248    87095.841    8554.0861      1.00761    -872.3547    2428.2261    7029.5465    9631.1083    9001.6034   -1213.9486   -33.278175    271.83731    295.35307 
610670000   6.1067e+08    289.71842    87095.841    8740.4987      1.00761   -831.69183     2405.928    7253.0991    8917.0222    10051.375   -1147.1622    112.46934    -69.11977    289.71864 
610680000   6.1068e+08    292.19394    87095.841    8893.8944      1.00761   -846.62982    2418.6541     8685.358    10139.423    7856.9027   -422.27444    -35.17655   -1178.0876     292.1938 
610690000   6.1069e+08    283.85276    87095.841    8797.5215      1.00761   -828.08064    2343.9901    7878.1914    9178.1923    9336.1809   -1753.8069     -927.037    -343.3236    283.85419 
610700000    6.107e+08    286.86635    87095.841    10185.861      1.00761   -751.47591    2454.2718    10988.603     9789.144    9779.8361   -1214.2476   -184.98237    15.608836    286.86729 
610710000   6.1071e+08    287.08188    87095.841    8667.3979      1.00761   -789.04162    2419.1147    8557.6976    8799.4457    8645.0504   -932.59972      339.309   -397.88136    287.08195 
610720000   6.1072e+08    296.58434    87095.841    9670.0836      1.00761   -852.84227    2461.5046    8771.5156    11092.984    9145.7516   -2047.4271   -378.89197    19.818065    296.58521 
610730000   6.1073e+08    292.33071    87095.841    8803.7683      1.00761   -859.38111    2407.4312    7433.0026    10284.179    8694.1238   -729.81512   0.58353311    71.148846    292.33053 
610740000   6.1074e+08    290.56658    87095.841    8656.4504      1.00761   -846.34387    2400.7542    8228.5003    9865.9114    7874.9395   -1058.4155    621.80045    160.60901    290.56674 
610750000   6.1075e+08    291.15767    87095.841    8154.9133      1.00761   -868.15538    2385.5481    7606.8883    8934.7347    7923.1167   -1578.6412    15.688564   -264.46942    291.15799 
610760000   6.1076e+08    293.70198    87095.841    8890.8167      1.00761   -830.66848    2451.4679    8555.5527    9447.3169    8669.5806   -953.99583   -494.56851   -373.08188    293.70222 
610770000   6.1077e+08    297.70094    87095.841     7640.748      1.00761   -852.10854    2474.7165    5958.8013    9260.5852    7702.8573   -1363.3325    828.69699   -585.22522    297.69974 
610780000   6.1078e+08    298.60853    87095.841    8970.6031      1.00761   -774.09785    2562.8694    9170.7805    8335.4842    9405.5448   -300.69278   -366.76332    152.20903    298.61024 
610790000   6.1079e+08    290.96801    87095.841    8543.8683      1.00761   -835.00431    2416.5797    7753.9132      8563.89    9313.8019   -1560.4672    752.47913   -406.55274    290.96888 
610800000    6.108e+08    296.53148    87095.841     9498.143      1.00761   -846.24959    2467.5066    10086.397    9868.3114    8539.7202   -636.76453   -713.44092    530.53202    296.52884 
610810000   6.1081e+08    293.05396    87095.841    8202.8991      1.00761   -820.53583    2454.3588    6860.7342     9038.484    8709.4792    -1109.853   -43.919263    603.68154    293.05447 
610820000   6.1082e+08    286.00256    87095.841    8605.0163      1.00761   -817.93297    2378.1619    8224.9375    9149.0193    8441.0922   -1222.3519   -213.68744    -1091.257    286.00197 
610830000   6.1083e+08    290.41892    87095.841     8816.295      1.00761   -838.11578    2407.3322    7610.9912    10052.737    8785.1567   -697.59744   -26.911479   -149.76924    290.42092 
610840000   6.1084e+08    297.80482    87095.841    9712.7133      1.00761   -890.11723    2437.8686    9048.3823    10085.286    10004.472   -1338.9976    373.79507    307.76662    297.80531 
610850000   6.1085e+08    284.32992    87095.841    8759.5427      1.00761   -914.98136    2262.4217    8598.0682    8762.2478     8918.312   -758.74562    360.34596   -515.04177    284.33146 
610860000   6.1086e+08     296.8555    87095.841    8286.6657      1.00761   -934.28149    2383.0956    8375.1292    8375.1263    8109.7418   -1559.1319    10.504636    303.08583    296.85498 
610870000   6.1087e+08     300.7321    87095.841    9270.8941      1.00761   -846.96368    2513.7347    8345.1583    9624.8419    9842.6821    -1198.785    458.34726      215.587    300.73375 
610880000   6.1088e+08    292.81937    87095.841    8844.7957      1.00761   -848.92918     2423.344     8193.413    9069.1064    9271.8677   -890.34465    8.5516015   -605.19111    292.81777 
610890000   6.1089e+08    293.63131    87095.841    9291.1264      1.00761   -924.99953     2356.347    8609.8812    9219.4191    10044.079   -1568.1443   -880.29606    262.94437    293.63161 
610900000    6.109e+08    296.68359    87095.841    9305.7575      1.00761   -840.77402     2474.682    8189.1157    9670.4472     10057.71   -1742.0723     148.4305   -143.04438    296.68468 
610910000   6.1091e+08    290.98386    87095.841    9345.5555      1.00761   -942.86523     2308.896     10048.23     9770.438    8217.9987    -777.5798   -595.13443    930.75087    290.98428 
610920000   6.1092e+08    294.85856    87095.841    8888.8037      1.00761   -907.46932    2387.5918    9150.2182    8693.7355    8822.4574    -977.7866   -260.06682    -148.5093    294.85926 
610930000   6.1093e+08    296.67061    87095.841    9831.2261      1.00761   -860.54372    2454.7672    9675.0305    9372.5967    10446.051   -1929.0607    248.41551   -409.45444    296.67024 
610940000   6.1094e+08    285.53025    87095.841    8593.2799      1.00761   -829.20074     2361.616    7225.4688    9765.8386    8788.5323   -750.02665   -64.464698    813.76986    285.53119 
610950000   6.1095e+08    292.92307    87095.841     8933.301      1.00761   -793.97314    2479.4588    8076.4974    9393.3685     9330.037   -123.08044   -1026.1957    1087.5505    292.92376 
610960000   6.1096e+08    290.65259    87095.841     8530.829      1.00761    -879.7496    2368.3097      8338.08    9385.6504    7868.7564   -1333.6454    837.06394   -149.90862    290.65406 
610970000   6.1097e+08    298.63536    87095.841    8587.1249      1.00761   -906.78595    2430.4812    7149.9415    9578.0819    9033.3512   -1721.1599    685.68848   -615.35838    298.63538 
610980000   6.1098e+08    299.66341    87095.841    9066.1973      1.00761   -898.39197    2450.3637     10230.45    8748.7052    8219.4364    -896.3506   -97.151896    27.948162    299.66339 
610990000   6.1099e+08    290.88032    87095.841    9506.7783      1.00761   -892.86784    2357.7362    8548.3704    10762.247    9209.7174   -510.42295   -488.76203     95.07033    290.87998 
611000000     6.11e+08    295.52874    87095.841    8802.8625      1.00761   -852.28415    2450.2664    7650.0816    9389.3865    9369.1193   -716.61266   -1041.6123   -596.39108    295.52916 
611010000   6.1101e+08    293.36928    87095.841    8164.9097      1.00761   -849.40069    2429.0177    7502.7436    8519.9686    8472.0168   -1246.2008   -129.56523    69.060687    293.37059 
611020000   6.1102e+08    289.05763    87095.841    8918.5693      1.00761   -914.80855     2315.427    8238.1228    10103.141    8414.4439   -1998.8817    27.807281   -527.62257    289.05811 
611030000   6.1103e+08    291.45659    87095.841    8798.2869      1.00761   -888.73247    2368.3115    8984.1249    9455.2158      7955.52   -1033.1346   -87.617778    395.15736     291.4553 
611040000   6.1104e+08    294.85949    87095.841    9495.2126      1.00761   -886.51704    2408.5545    9563.3966    9849.7087    9072.5326   -537.29046    77.766757    840.79375     294.8589 
611050000   6.1105e+08    289.22708    87095.841    7860.8463      1.00761   -908.16216    2323.9669    7505.8574    8191.4141    7885.2674    -854.1804    -33.12236    192.89447    289.22801 
611060000   6.1106e+08    288.97841    87095.841    8398.7787      1.00761   -894.78697    2334.5633    5879.8538    10325.835    8990.6474   -893.06113   -698.01167   -449.97535    288.97908 
611070000   6.1107e+08     296.4244    87095.841    8612.6234      1.00761   -860.24542    2452.3141    8789.6715    8796.9632    8251.2357   -1135.6996   -675.63034    1074.2652    296.42412 
611080000   6.1108e+08    295.39854    87095.841    9759.4354      1.00761   -912.03575    2389.0597    9986.9745    10562.355    8728.9771   -1756.4763    37.009883    998.23431    295.39835 
611090000   6.1109e+08    298.07051    87095.841    8860.4565      1.00761   -881.63883    2449.3161    7890.0309    9525.4769    9165.8617   -1417.8398    15.185597    48.377645    298.06911 
611100000    6.111e+08    296.49256    87095.841    8591.8194      1.00761    -868.3253    2444.9959    8814.6226    8976.3896     7984.446   -1102.2702    33.173618    1616.4074     296.4928 
611110000   6.1111e+08     296.1501    87095.841    9227.9254      1.00761    -933.1288    2376.3654    8228.6513    10562.079    8893.0461   -1368.7168    150.25617   -409.98681    296.15083 
611120000   6.1112e+08    298.47329    87095.841    9300.0563      1.00761   -812.83379    2522.6222    10618.913    8696.9581     8584.298   -1212.2579    425.40647   -382.23243    298.47267 
611130000   6.1113e+08    297.64527    87095.841    9507.2813      1.00761   -811.47528    2514.7275    9157.3256    10131.449     9233.069   -1975.2689   -188.97826    54.666278    297.64432 
611140000   6.1114e+08    296.00442    87095.841    9567.3784      1.00761   -813.12842    2494.7378    9796.6659    8904.6609    10000.809   -1352.1979    -22.22966   -332.58928    296.00661 
611150000   6.1115e+08    290.30263    87095.841    8445.6891      1.00761   -828.16568    2415.9828    8464.6545    8836.0788     8036.334   -1814.5239    25.605458   -219.72048      290.303 
611160000   6.1116e+08     297.9467    87095.841    8742.5742      1.00761   -926.94827     2402.623     7238.035    10174.661    8815.0264   -2249.3454    26.544825    1010.4993    297.94774 
611170000   6.1117e+08    300.06081    87095.841    9910.3546      1.00761    -926.1536     2427.043     9147.281    10249.464    10334.319    -720.5872      -275.36   -31.508763    300.06096 
611180000   6.1118e+08    299.15043    87095.841      9319.45      1.00761   -812.44816     2530.575    9115.4351    9722.0281    9120.8867   -2017.2013    -228.5473    330.36619    299.14979 
611190000   6.1119e+08    294.04535    87095.841    9059.5442      1.00761   -885.48678    2400.4867    7875.8159    10855.631    8447.1861   -1499.4136    25.709631    874.76932    294.04513 
611200000    6.112e+08     288.5886    87095.841     8649.773      1.00761   -878.03241    2346.9616     8367.178     8898.125    8684.0161   -1955.2749   -501.45272   -207.31101    288.58888 
611210000   6.1121e+08    297.42254    87095.841    9366.3479      1.00761   -823.46663    2500.2471    8944.3612    9136.0092    10018.673   -1654.0796   -254.79727    -206.0398    297.42226 
611220000   6.1122e+08    291.48621    87095.841    8966.4021      1.00761   -834.43858    2422.9363    9174.7018    9163.1612    8561.3432   -1179.0396    554.45451   -95.130055    291.48719 
611230000   6.1123e+08    295.20968    87095.841    9344.1441      1.00761   -780.84084    2518.1441    8676.9458    10045.778    9309.7083   -1122.0263    182.99635   -10.008012    295.20964 
611240000   6.1124e+08    288.71398    87095.841    8942.5772      1.00761   -799.80703    2426.5881    8346.5976    8814.1661    9666.9679   -1551.1168    166.30969    129.91352     288.7142 
611250000   6.1125e+08    296.85968    87095.841    8939.0078      1.00761   -892.87859    2424.5452    8556.9909    9053.2299    9206.8024   -792.17557   -61.830409     751.1238    296.85908 
611260000   6.1126e+08    288.51927    87095.841    9224.9942      1.00761   -843.47182    2380.7474    8364.7314    9866.0639    9444.1874   -1417.5107    446.64753    91.929464    288.51914 
611270000   6.1127e+08    288.15154    87095.841    9457.1508      1.00761   -785.71245    2434.3974    9845.6059    8282.8444    10243.002   -1765.6684    336.86287   -731.05091    288.15112 
611280000   6.1128e+08    300.81197    87095.841    9834.6669      1.00761   -814.13435    2547.4565    9156.4032     9883.583    10464.015   -1005.0198    1023.2652   -8.2665065    300.81182 
611290000   6.1129e+08    295.40341    87095.841    9338.3833      1.00761   -867.00581    2434.1441    8879.2288    10434.773    8701.1477   -1226.6554    135.07114    417.73014     295.4044 
611300000    6.113e+08    289.09521    87095.841    9197.1591      1.00761   -843.83699    2386.8184    8486.8182    8721.7192     10382.94   -1844.6588    160.72181    512.63344    289.09486 
611310000   6.1131e+08    294.71181    87095.841    8970.4656      1.00761   -844.76313    2448.6581    7911.5384    9882.6677    9117.1906   -1503.1443   -497.82498    648.80924    294.71151 
611320000   6.1132e+08    296.94738    87095.841    9495.5291      1.00761   -834.51537    2483.8884    8572.8067    10185.042    9728.7388   -1462.4704   -379.00175   -108.74628    296.94923 
611330000   6.1133e+08    291.26962    87095.841    8695.2225      1.00761   -828.41077    2426.5438    8664.1965    8862.1993    8559.2717   -2238.4394    307.59532   -136.47586    291.26937 
611340000   6.1134e+08    290.27167    87095.841    9240.6476      1.00761   -873.46682    2370.3356    8536.2986    10381.558     8804.086    -1669.527   -321.52584    484.69781    290.27277 
611350000   6.1135e+08    291.21634    87095.841     9431.537      1.00761   -876.50354    2377.8556    8559.7994    10003.376    9731.4356   -1640.0664    173.91164    139.09692    291.21652 
611360000   6.1136e+08    287.53464    87095.841    9120.5385      1.00761   -890.71719    2322.4988     8218.121    10458.393    8685.1013   -1748.4305   -47.823994   -182.00673    287.53411 
611370000   6.1137e+08    302.09934    87095.841    9280.2558      1.00761   -790.30311    2585.6742    8743.2837    9385.5976    9711.8861   -2010.1795   -80.008522    91.498592    302.09893 
611380000   6.1138e+08    294.24389    87095.841    9886.1349      1.00761   -862.15072    2426.0415    9407.4024    10524.044    9726.9581   -1542.2303    601.05163    402.93789    294.24441 
611390000   6.1139e+08    290.51275    87095.841     8948.623      1.00761   -833.55616    2412.9403    7711.8841    8946.2715    10187.713   -2089.4492    822.85048     30.11763    290.51303 
611400000    6.114e+08    299.34753    87095.841    8661.4621      1.00761   -763.55398    2581.6717    6926.3253    10061.202    8996.8586   -1060.1604   -439.51194    604.65979    299.34702 
611410000   6.1141e+08      291.103    87095.841    9138.9406      1.00761   -835.42113    2417.6715    8365.0229    10072.526    8979.2732   -1073.0291    954.73383   -153.42048    291.10233 
611420000   6.1142e+08    291.80128    87095.841    9374.2391      1.00761   -903.67312    2357.2227    8917.6595    9119.6803    10085.377   -1906.0292     29.25357    143.64075      291.803 
611430000   6.1143e+08     291.2054    87095.841    9120.4399      1.00761   -906.76602    2347.4709    8221.1516     9501.196    9638.9722   -1666.9551    332.03805   -286.59825    291.20588 
611440000   6.1144e+08    299.11374    87095.841    8636.3339      1.00761   -830.02847    2512.5846    7640.1867    9148.7386    9120.0763    -2712.687    151.20357   -211.78381     299.1144 
611450000   6.1145e+08    300.31422    87095.841    9243.2324      1.00761   -831.44126    2524.5873    8010.2347    10389.735    9329.7276   -1331.4682   -335.68569   -670.51123    300.31543 
611460000   6.1146e+08    292.07389    87095.841    7605.4058      1.00761   -830.83923    2433.1031    6337.6054    8090.6353    8387.9769   -1143.2487    688.73583    1125.4593    292.07338 
611470000   6.1147e+08    292.18928    87095.841    8715.6335      1.00761   -885.27049    2379.9613     8088.061    8838.9281    9219.9114   -1634.9794   -258.24033   -68.012588    292.18983 
611480000   6.1148e+08    293.31786    87095.841    8600.8975      1.00761   -876.22882    2401.6149    7009.9461    9940.5041    8852.2423   -1239.6773    164.66455   -196.45472    293.31792 
611490000   6.1149e+08     288.5515    87095.841    9086.2338      1.00761   -862.81864    2361.7608    8405.9065     10213.32    8639.4752   -1698.0479    396.11807   -455.64286    288.55122 
611500000    6.115e+08     292.8024    87095.841    9268.2253      1.00761    -853.1703    2418.9131     7719.651    10051.079    10033.946   -1519.2418   -136.95501    507.65278    292.80239 
611510000   6.1151e+08    288.04413    87095.841    8792.1394      1.00761   -841.31811    2377.5914    6808.9374    9771.6498    9795.8309   -1518.5667    240.68967    523.84441     288.0458 
611520000   6.1152e+08    289.58777    87095.841    9874.5089      1.00761   -882.51622    2353.6436    9637.7797    9620.8624    10364.885   -1044.6396   -561.96792   -520.97149    289.58678 
611530000   6.1153e+08    292.23666    87095.841    9663.7615      1.00761   -784.26348    2481.4979    8506.0379    10027.697    10457.549   -827.67285   -382.17463   -1281.1779    292.23654 
611540000   6.1154e+08     294.3871    87095.841    9605.3694      1.00761   -755.53097    2534.2616    9264.8942    10058.906    9492.3076   -60.994205    352.80536   -357.42553    294.38764 
611550000   6.1155e+08    291.51684    87095.841    9112.6642      1.00761   -808.63869    2449.0786     10202.03    9152.3133    7983.6493   -179.01011    764.46202    282.47013    291.51742 
611560000   6.1156e+08    297.60803    87095.841    9588.7076      1.00761    -863.3052    2462.4815    7786.2925    10485.679    10494.151   -1759.3504    320.21397   -244.04919    297.60682 
611570000   6.1157e+08    288.93405    87095.841    9532.9005      1.00761   -818.08922    2410.7652    8758.0639    10479.042    9361.5957   -1664.8299   -216.83058    930.64632    288.93435 
611580000   6.1158e+08    295.60671    87095.841    10051.826      1.00761   -916.11931    2387.3025    9469.4549    10301.183     10384.84   -811.57465   -92.939001    541.65997    295.60723 
611590000   6.1159e+08    298.16975    87095.841    8658.4475      1.00761   -916.78041    2415.2835    8577.1105    8368.0039    9030.2281    -251.0385   -479.65101    395.14728    298.17182 
611600000    6.116e+08    287.83835    87095.841    10307.498      1.00761   -915.41805    2301.1918    10751.282    10261.939    9909.2746   -1129.2425    337.46278    263.78283    287.83988 
611610000   6.1161e+08    294.23849    87095.841     9048.415      1.00761   -877.07189      2411.06    8607.6737    9199.4981    9338.0733   -1112.2878     462.3442    -113.3876    294.23777 
611620000   6.1162e+08    291.90486    87095.841    8213.6168      1.00761   -843.38843     2418.665    6592.9869    9100.7722    8947.0915   -1373.3056   -42.929365   -673.59091    291.90558 
611630000   6.1163e+08    290.93841    87095.841    8879.6555      1.00761   -799.66947    2451.5838    7474.3855    10395.855    8768.7261   -1495.9715   -359.71185    240.19915    290.93867 
611640000   6.1164e+08    285.89206    87095.841    8740.7738      1.00761    -879.2932    2315.5668    8073.5899    8962.5934    9186.1381   -1242.9912   -548.60426    -258.7009    285.89111 
611650000   6.1165e+08    296.82411    87095.841    9050.7992      1.00761   -871.55803    2445.4683    9681.6249    9475.6407    7995.1321   -1682.7355   -534.72605   -599.10287    296.82499 
611660000   6.1166e+08    293.09039    87095.841    9839.0355      1.00761    -901.1917      2374.11    9240.2326    10321.475    9955.3989   -1639.6791   -33.319809    66.867772    293.09081 
611670000   6.1167e+08    290.85874    87095.841    8542.4957      1.00761   -713.59134    2536.7716    8470.8482    9602.3349    7554.3039   -1071.9026    396.92795    119.52212     290.8586 
611680000   6.1168e+08    285.68512    87095.841     8924.086      1.00761   -893.79991    2298.7476    8911.0555    8846.2271    9014.9754   -1014.6878   -1474.1799    57.679066    285.68533 
611690000   6.1169e+08    296.38385    87095.841    9312.8347      1.00761   -938.35938     2373.747    8726.3536    9656.6803    9555.4704   -935.20006    175.30921   -15.051753    296.38486 
611700000    6.117e+08    295.51142    87095.841    10191.166      1.00761   -945.58338    2356.7736    9394.0549    12207.734    8971.7097   -885.13218   -181.04819   -411.85204    295.51294 
611710000   6.1171e+08     288.8384    87095.841    9391.1953      1.00761   -899.19902    2328.5866     8552.299    10449.114    9172.1724   -1294.5367   -101.69317    1135.3138    288.83722 
611720000   6.1172e+08    292.50828    87095.841    9120.9414      1.00761   -883.26949    2385.5272    8298.5671    9728.9591    9335.2981   -1316.2408    155.94558   -123.15493    292.50753 
611730000   6.1173e+08    286.48435    87095.841    9312.5076      1.00761   -835.50026    2365.9787    8908.0323    10101.226    8928.2645   -749.77872   -39.416146    904.38219    286.48372 
611740000   6.1174e+08    294.58667    87095.841    8632.6736      1.00761   -770.05368    2521.9691    8058.1632     9372.088    8467.7695    61.331367   -403.43821   -234.86133    294.58526 
611750000   6.1175e+08    301.53491    87095.841    9614.8955      1.00761   -839.04212    2530.6276    8746.8635    10183.043      9914.78    -760.3678    581.87278   -85.381892    301.53571 
611760000   6.1176e+08    295.09969    87095.841    9061.4978      1.00761    -746.7627    2550.9931    9316.1924    8642.5194    9225.7816   -1157.6745    400.74618    770.22806    295.09677 
611770000   6.1177e+08    290.78578    87095.841    9678.6042      1.00761    -887.0287    2362.5189    8979.9766    9960.2254     10095.61   -1125.2175   -182.48733   -416.14235    290.78667 
611780000   6.1178e+08    296.89338    87095.841    8660.8421      1.00761   -843.63939     2474.161    8323.5438    9392.5281    8266.4545   -1331.6996   -416.17468    -118.1609    296.89426 
611790000   6.1179e+08    295.49797    87095.841    8557.4379      1.00761   -867.12285    2435.0838    7650.1273    9686.0003    8336.1861    -723.6741   -35.514201   -258.53048    295.49847 
611800000    6.118e+08    293.03633    87095.841    8658.5058      1.00761   -772.70781    2501.9898    9251.0686    8736.5574    7987.8913     -1691.82    267.92192    677.05894      293.035 
611810000   6.1181e+08    290.00517    87095.841    8888.2422      1.00761   -912.47661    2328.3476    8408.1407    9481.5132    8775.0727   -664.50163   -288.29362    165.19227    290.00451 
611820000   6.1182e+08    298.48935    87095.841    9694.0898      1.00761     -812.626    2523.0094    8463.5068    10710.032    9908.7306   -1142.1392   -257.20673    687.17542    298.49035 
611830000   6.1183e+08    288.46769    87095.841    9300.4057      1.00761   -799.52608    2424.1168    8382.6619    10701.061    8817.4943   -1412.3766    406.89703    -96.71242    288.46841 
611840000   6.1184e+08    296.06978    87095.841    9314.8355      1.00761   -773.43165     2535.165    8919.8996     10010.61    9013.9965   -1239.1188     38.86264   -577.63223    296.06842 
611850000   6.1185e+08    291.52216    87095.841    8330.8528      1.00761   -897.51092    2360.2658    7941.1215    9848.2322    7203.2047   -1342.8228   -560.83727   -871.04022    291.52372 
611860000   6.1186e+08    288.48619    87095.841    8957.5148      1.00761   -853.17831    2370.6713    9151.5025    9204.4804    8516.5614   -403.54328   -309.95943    -475.9657    288.48562 
611870000   6.1187e+08    298.10388    87095.841    9893.7482      1.00761   -896.21595    2435.1119    9601.4756    10283.527    9796.2424   -201.61024   -384.81677    208.35493    298.10333 
611880000   6.1188e+08    290.09953    87095.841    9061.0273      1.00761   -918.54742    2323.3313    8308.6765    9578.7595    9295.6459   -1290.5978    353.01698     -70.8343    290.10041 
611890000   6.1189e+08    293.61344    87095.841    8921.4693      1.00761   -811.76093    2469.3859    8245.7898    9601.5555    8917.0626   -1181.1368   -711.07482    59.081958    293.61422 
611900000    6.119e+08    297.51593    87095.841    9663.9857      1.00761   -869.74921    2455.0083    8841.9252    10261.706    9888.3263   -1406.4262   -779.01039   -45.693532    297.51439 
611910000   6.1191e+08    292.12624    87095.841    8703.7093      1.00761   -906.53035    2357.9969    8785.1234     8258.567    9067.4374   -382.61213    132.53896    346.73104     292.1241 
611920000   6.1192e+08    288.44805    87095.841    8571.6524      1.00761   -849.57872    2373.8447    7842.5779    9355.1863    8517.1928   -566.92311    1013.3244    1422.0173    288.44699 
611930000   6.1193e+08    292.50744    87095.841    10525.997      1.00761   -787.68432     2481.103    10063.315    10022.214    11492.461    -1115.179    173.57451   -505.10925    292.50819 
611940000   6.1194e+08    283.35366    87095.841    8834.7591      1.00761   -801.07581    2365.4174    8191.5196    9590.9012    8721.8564    -1541.441    52.065975    376.33822    283.35435 
611950000   6.1195e+08    292.77373    87095.841    9173.2151      1.00761   -871.56028    2400.2029    8603.3673    10277.518    8638.7597   -935.60854    82.468824    855.04682    292.77378 
611960000   6.1196e+08    290.98565    87095.841    9017.7903      1.00761   -759.63958    2492.1416    7933.8801    9722.5701    9396.9207   -1692.2603    227.43152    1189.9898    290.98455 
611970000   6.1197e+08    296.32191    87095.841    8717.9529      1.00761    -841.1085    2470.3057    8340.4343    8978.8177    8834.6067    -2248.511   -785.26575    284.63344    296.32127 
611980000   6.1198e+08    290.25394    87095.841    9149.9753      1.00761   -882.55754    2361.0467    9523.8094    9582.8665      8343.25   -1253.6496   -9.1742414   -130.46262    290.25458 
611990000   6.1199e+08    291.37654    87095.841    9543.7454      1.00761   -828.44029    2427.7091    9067.3412    10149.209    9414.6861   -788.81203    -443.4666    53.769608    291.37838 
612000000     6.12e+08     289.0726    87095.841    8447.5587      1.00761   -778.84764    2451.5551    6628.0365    9746.4149    8968.2247   -1046.6922   -246.87696    431.77516    289.07225 
612010000   6.1201e+08    294.02076    87095.841     8464.742      1.00761   -757.10568    2528.5931     8244.104    9922.4548    7227.6673   -640.36514    -381.5105    540.28342    294.02087 
612020000   6.1202e+08    287.11755    87095.841    8495.6768      1.00761   -818.86853    2389.6864    8343.0957    8440.8336    8703.1013   -1553.9036   -405.45207    788.17536    287.11723 
612030000   6.1203e+08    291.96607    87095.841    9212.0632      1.00761    -889.4805    2373.2569    8321.5267    9798.8365    9515.8264   -1241.1947    556.62152   -52.062204    291.96609 
612040000   6.1204e+08    296.60641    87095.841    8658.9305      1.00761   -858.15931    2456.4342     7753.357    9286.9734    8936.4612   -816.05401   -365.08825    122.43985    296.60795 
612050000   6.1205e+08    288.05669    87095.841    9449.5984      1.00761    -821.7808    2397.2691    9200.9305    9815.4294    9332.4352    -43.24669   -443.26689    52.518568    288.05793 
612060000   6.1206e+08    292.25146    87095.841    8993.2566      1.00761    -815.4282    2450.4985    8290.4409    9742.1935    8947.1352   -1228.4021   -373.00977    419.47916    292.25053 
612070000   6.1207e+08    289.13154    87095.841    9539.5053      1.00761   -863.03495    2368.0264    9453.0417    9835.9226    9329.5516   -872.13057   -462.38855   -436.89026      289.132 
612080000   6.1208e+08    292.57396    87095.841    8898.7494      1.00761   -897.35504    2372.1756    8751.9645    8906.9358     9037.348   -1529.2709   -985.25022   -352.06554    292.57438 
612090000   6.1209e+08    285.76481    87095.841    9281.8626      1.00761   -895.95591    2297.4821    8845.9708    9948.0397    9051.5775   -608.42438    727.23869    130.20631    285.76586 
612100000    6.121e+08    298.41659    87095.841    8586.4971      1.00761   -918.92394    2415.8984    7329.0048    10158.796    8271.6907    -419.4823    734.44655   -21.671899    298.41662 
612110000   6.1211e+08    298.32148    87095.841    8809.1931      1.00761   -902.14807    2431.6114    7758.7818    9665.0981    9003.6996   -1963.5607   -183.28272    -59.00009    298.32088 
612120000   6.1212e+08     291.7916    87095.841    7168.7543      1.00761   -839.22635    2421.5613    6425.1852    7992.4139    7088.6637   -2173.5357   -186.38235   -181.70563    291.79205 
612130000   6.1213e+08     294.0854    87095.841    9854.6087      1.00761   -844.43074    2441.9904    9764.8811    10463.411    9335.5339   -1285.7162   -596.48377    182.44129    294.08545 
612140000   6.1214e+08    293.70368    87095.841    9668.1121      1.00761   -854.33119    2427.8241    9833.9021    10010.285    9160.1493   -1563.4396   -630.91288    419.68201    293.70229 
612150000   6.1215e+08    289.48841    87095.841    9315.3596      1.00761   -836.43438    2398.6151    7612.5221    10433.394    9900.1633   -1319.1004   -38.442311    253.08535    289.48934 
612160000   6.1216e+08    289.48233    87095.841    8948.9723      1.00761   -936.79274    2298.1888    8853.6895    9986.9225    8006.3048   -1306.2661    96.499517    63.623799    289.48142 
612170000   6.1217e+08    292.65614    87095.841    9567.4031      1.00761   -855.35043    2415.0986    9476.0073    10259.022    8967.1795   -1036.7325    1040.1282   -589.80266    292.65575 
612180000   6.1218e+08    287.49431    87095.841    8701.8732      1.00761   -838.13654    2374.6287    7827.0585     8992.511    9286.0499   -1546.3314    55.350943   -595.97369    287.49134 
612190000   6.1219e+08    292.19302    87095.841    8184.9773      1.00761   -838.87551    2426.3981    7693.8785    8744.8009    8116.2525   -1347.3427    -196.1141   -130.09865    292.19497 
612200000    6.122e+08    299.01526    87095.841    9208.6233      1.00761   -865.11588    2476.3966    8284.5763    9742.1026    9599.1912   -1482.7769   -320.19611    338.31551    299.01553 
612210000   6.1221e+08    289.63341    87095.841    9636.6068      1.00761   -721.41817    2515.2517    8234.8343      11169.4    9505.5858   -1676.0301    210.87107   -137.63431    289.63321 
612220000   6.1222e+08    294.69525    87095.841    9660.7795      1.00761   -804.40767    2488.8285     8940.175    10364.859    9677.3043   -1563.9765    361.42708    242.83598    294.69755 
612230000   6.1223e+08    289.63441    87095.841    9207.8065      1.00761   -847.56219    2389.1188    8984.0947    9351.7454    9287.5793   -1213.7405   -1043.7786    134.46953    289.63497 
612240000   6.1224e+08    296.88419    87095.841     8890.639      1.00761   -864.30888    2453.3888    7927.5579    8971.5624    9772.7968   -1146.8735   -1182.0039    652.01242    296.88359 
612250000   6.1225e+08    290.27261    87095.841    9693.2623      1.00761   -835.98488     2407.828    8920.0426    10327.143    9832.6015   -1253.0397   -515.55111    426.29429    290.27448 
612260000   6.1226e+08    286.10324    87095.841    8513.0734      1.00761   -908.80312    2288.4169     7738.474    9916.4623    7884.2838   -2060.0845    132.44134    206.44525    286.10244 
612270000   6.1227e+08    294.00896    87095.841     8409.905      1.00761   -878.73877    2406.8281    7757.7664     9534.484    7937.4645   -604.02654    207.77334   -94.710705    294.00918 
612280000   6.1228e+08     299.8303    87095.841    9397.4149      1.00761   -844.67806    2505.9426    9026.3872     9865.852    9300.0055   -187.94581   -782.84097     168.4628    299.82957 
612290000   6.1229e+08    294.18866    87095.841    8823.6907      1.00761   -837.27934    2450.2957     8886.696    9229.8922    8354.4837   -1367.6091    335.16949    362.49081    294.19008 
612300000    6.123e+08    293.45544    87095.841     8851.818      1.00761   -819.83102    2459.5502    8424.2545     9911.772    8219.4273   -1328.2758   -825.40006   -338.99186    293.45386 
612310000   6.1231e+08    290.33705    87095.841    9018.2402      1.00761   -888.17505     2356.358    8224.7822    9103.7479    9726.1904   -1839.6338    -419.8677    391.10768    290.33643 
612320000   6.1232e+08    288.92378    87095.841    9276.7276      1.00761   -925.54525    2303.1944    9684.5853    8581.0574    9564.5401   -1181.6821   -139.53613   -186.02697    288.92339 
612330000   6.1233e+08    294.40702    87095.841     9575.826      1.00761   -824.85936    2465.1558    8756.9486    10243.204    9727.3252    -956.7124    342.41609   -117.87964      294.408 
612340000   6.1234e+08    292.37556    87095.841    9712.2406      1.00761   -820.38475    2446.9288    9293.3785    10581.651    9261.6927   -1221.7025   -77.063603    112.31427    292.37604 
612350000   6.1235e+08    299.66493    87095.841    9087.8801      1.00761   -846.20501    2502.5676    8949.7701    9122.1562    9191.7139    -887.3389    179.26654    140.52438    299.66443 
612360000   6.1236e+08    298.67494    87095.841      9515.37      1.00761    -840.0034    2497.7061    8809.6455    10395.977    9340.4875   -1084.1649   -154.59422    489.92294    298.67681 
612370000   6.1237e+08    293.30892    87095.841    9299.0575      1.00761   -881.22036    2396.5235    8880.6744    10071.061    8945.4372   -859.71656   -145.88533   -297.96864    293.30887 
612380000   6.1238e+08    294.24298    87095.841    9434.5986      1.00761    -916.7476    2371.4344    8018.8686    9877.2667     10407.66   -1451.4583    67.575723   -20.049409    294.24356 
612390000   6.1239e+08     293.6199    87095.841    10181.674      1.00761   -851.00154    2430.2176    10348.318    9841.0497    10355.655   -1458.4583   -181.61611    -216.7251    293.62004 
612400000    6.124e+08    294.31257    87095.841    9597.9358      1.00761   -904.64213    2384.3176    8770.9192    10635.578    9387.3104    -957.4461   -616.55438    28.461642    294.31189 
612410000   6.1241e+08    291.10327    87095.841    8698.7594      1.00761   -833.37487    2419.7208    7408.5027    9786.4595    8901.3158   -987.71264    193.61167    159.06886    291.10383 
612420000   6.1242e+08    296.62274    87095.841    8713.4106      1.00761   -899.47594    2415.3001    7723.8901    10491.948    7924.3938    -1009.561   -106.52596    79.742082    296.62194 
612430000   6.1243e+08     294.6736    87095.841    9102.0409      1.00761   -802.17906    2490.8152    8554.9565    10096.154     8655.012   -964.09385     -23.7103   -8.9504341    294.67344 
612440000   6.1244e+08    298.92011    87095.841    9105.6259      1.00761   -847.52925      2492.92    8817.6683    10042.981    8456.2287   -1497.2479   -67.586446    91.969319    298.91848 
612450000   6.1245e+08    291.01215    87095.841    8909.4574      1.00761   -861.34454    2390.7328    8977.5491    9570.7516    8180.0716   -120.00452     10.70021   -121.66434    291.01202 
612460000   6.1246e+08    294.15352    87095.841    9478.8012      1.00761   -783.44947    2503.7328    8159.0405    10831.001    9446.3623   -1201.1069   -299.60646    396.93764    294.15324 
612470000   6.1247e+08     294.6792    87095.841    8810.1813      1.00761   -848.10216    2444.9546    8016.6829    9458.0106    8955.8503   -752.49748   -9.5059873   -274.44613    294.67915 
612480000   6.1248e+08     300.0412    87095.841    9393.2375      1.00761   -795.29005    2557.6875     8597.868    10577.718     9004.126   -873.24923   -854.68057   -870.47288    300.04143 
612490000   6.1249e+08    291.25621    87095.841    9192.6971      1.00761   -805.30536    2449.4994    8781.9066    9319.4278    9476.7568   -1123.1421    347.62412    307.57913    291.25557 
612500000    6.125e+08    296.12965    87095.841    8368.8575      1.00761   -792.19807    2517.0677    7441.0662    9677.7157    7987.7905   -772.74236    57.816596   -8.1005431    296.13131 
612510000   6.1251e+08    289.02574    87095.841    8749.3562      1.00761    -837.2343    2392.6447    8614.3656    9554.6727    8079.0302   -1368.9072   -237.00374   -167.10777     289.0268 
612520000   6.1252e+08    292.40434    87095.841    9207.3083      1.00761   -932.40267    2335.2324    9712.7017     9605.355    8303.8684   -765.94086    756.19985   -156.18248     292.4052 
612530000   6.1253e+08    291.70668    87095.841    8871.1981      1.00761   -811.97483     2447.864    8284.9258     8915.361    9413.3074   -1140.6402   -65.216378    258.21343     291.7052 
612540000   6.1254e+08    291.96671    87095.841    9654.2828      1.00761   -854.39738    2408.3472    10085.705    9754.6382    9122.5054   -1067.1091    983.93392   -443.31681    291.96643 
612550000   6.1255e+08    293.91915    87095.841    8315.3858      1.00761   -866.57694    2417.9863    7383.0917    8657.2454    8905.8203   -1759.5247    285.62505   -437.91322    293.91878 
612560000   6.1256e+08    292.62053    87095.841    9817.3333      1.00761   -790.03738    2480.0137     9673.269    10528.599    9250.1315   -1782.9096    233.34731   -198.60662    292.62058 
612570000   6.1257e+08    296.43966    87095.841     10049.74      1.00761    -922.4254    2390.3047    9380.0947    10798.606     9970.518   -616.64329   -289.14651   -14.461347    296.44068 
612580000   6.1258e+08    293.24552    87095.841    10354.303      1.00761   -846.72701    2430.3084    9459.4515    11702.717    9900.7411   -897.48602   -571.05253   -815.74881    293.24532 
612590000   6.1259e+08    293.26081    87095.841      9097.46      1.00761   -897.45523     2379.751    8420.5365    9773.0824     9098.761   -1125.4438   -156.49918    366.80342    293.26046 
612600000    6.126e+08    298.45854    87095.841    9696.6813      1.00761    -837.1747    2498.1164    9403.1665    10108.481     9578.396   -713.11842    23.698129    376.87167    298.45735 
612610000   6.1261e+08    290.99063    87095.841    10132.606      1.00761    -825.6878     2426.149    9719.6782    9831.3714    10846.767   -1223.9678    -378.3701    333.94664    290.99139 
612620000   6.1262e+08    300.54925    87095.841    8842.9264      1.00761   -818.18167    2540.4733    9016.3605     8932.603    8579.8156   -1425.5693   -89.481663   -68.414401    300.54832 
612630000   6.1263e+08    294.52454    87095.841    8799.0777      1.00761   -866.94281    2424.3857    8133.0331    8998.3796    9265.8205   -1377.9867   -239.30533    465.08112    294.52538 
612640000   6.1264e+08    291.65202    87095.841     8335.942      1.00761   -773.67772    2485.5501    6946.8992    9592.8879     8468.039   -1712.9824   -166.39941     437.6163    291.65125 
612650000   6.1265e+08    296.16214    87095.841    8696.9408      1.00761   -880.46749    2429.1612    7544.9077    8774.3849    9771.5297   -1014.2203   -822.88127   -331.88234    296.16152 
612660000   6.1266e+08    291.90438    87095.841    9090.6278      1.00761     -744.908    2517.1401    7383.5041    10354.777    9533.6024    -211.9092   -489.40489    368.90751     291.9044 
612670000   6.1267e+08    291.16532    87095.841    9282.1029      1.00761   -872.21219    2381.5768    8533.1675     10674.81    8638.3315   -795.89801    378.17914    169.20014    291.16484 
612680000   6.1268e+08    293.85505    87095.841    9669.6743      1.00761   -866.72304    2417.1239    8800.9889    9701.7029    10506.331   -1048.7764    -134.2332    772.17832    293.85495 
612690000   6.1269e+08    295.85233    87095.841    7534.7164      1.00761   -851.52006    2454.6465    7371.1004    7650.0117    7583.0372    -851.8501    152.93364     -474.448     295.8517 
612700000    6.127e+08    293.96173    87095.841    9149.6047      1.00761   -894.57013     2390.469    7590.0377    10487.622    9371.1539   -961.87133   -110.56779   -179.46186    293.96177 
612710000   6.1271e+08    292.61586    87095.841     9778.607      1.00761   -838.08008    2431.9188    8742.8517    10682.508    9910.4612   -1018.9496   -333.85136   -496.65932    292.61708 
612720000   6.1272e+08     297.1202    87095.841     9823.149      1.00761   -821.85796    2498.4771    8704.1194    11349.496    9415.8314   -525.05673    -279.7395   -298.83613    297.11965 
612730000   6.1273e+08     293.0065    87095.841    9579.6618      1.00761   -845.96189    2428.4024    8776.6756    10422.178    9540.1322   -1187.2942   -243.95478    512.41549    293.00722 
612740000   6.1274e+08    290.52509    87095.841    8451.2518      1.00761   -782.80165    2463.8328    7705.8163    10028.802    7619.1376   -1105.6997   -41.464967    832.23914    290.52561 
612750000   6.1275e+08    295.21469    87095.841    10215.452      1.00761   -880.59518    2418.4457    10419.999    9794.5456    10431.811   -836.39809   -232.89577   -602.17464    295.21366 
612760000   6.1276e+08    302.30351    87095.841    9673.9112      1.00761   -823.58649    2554.6724    10091.923    10054.106    8875.7042   -343.72346   -58.012332    132.13037    302.30458 
612770000   6.1277e+08    295.10737    87095.841     8936.268      1.00761   -920.59085    2377.2507    7891.9191    10092.094    8824.7912    -1313.898   -207.85591   -592.83524    295.10595 
612780000   6.1278e+08    292.31438    87095.841    9762.2323      1.00761   -772.56208    2494.0677    10131.204    10075.446    9080.0466   -528.21184    150.13299    288.36375      292.313 
612790000   6.1279e+08    293.37655    87095.841    8324.5623      1.00761   -904.53502    2373.9646    8190.6483    8372.0906     8410.948   -383.76797    45.704533    -29.52539    293.37739 
612800000    6.128e+08     290.1164    87095.841    8797.3167      1.00761   -778.70167    2463.3656    7277.9643    10943.832    8170.1543   -28.321966   -11.356318    603.76146    290.11493 
612810000   6.1281e+08    292.00205    87095.841    9845.4152      1.00761   -806.97161     2456.168    8239.4941    10809.759    10486.992   -472.11445    302.65232    594.35674    292.00135 
612820000   6.1282e+08    283.28134    87095.841    9785.8898      1.00761   -973.74852    2191.9366    8655.3558    10299.393    10402.921   -710.88258   -70.155301    61.705893    283.28068 
612830000   6.1283e+08    290.75353    87095.841    8996.5478      1.00761   -916.65203    2332.5352    7984.1653    9941.1527    9064.3254   -1047.5988     181.3755   -283.17931    290.75299 
612840000   6.1284e+08    295.01102    87095.841    9412.1188      1.00761   -779.81565    2516.9492     8260.672    10153.141    9822.5439   -1386.8968    -253.9024   -444.26112    295.01128 
612850000   6.1285e+08    300.38482    87095.841    9634.4466      1.00761   -773.61344     2583.204    9700.6539    9479.0639     9723.622   -977.18121    -306.6095    22.106043    300.38436 
612860000   6.1286e+08    287.92222    87095.841    8212.6248      1.00761   -816.27705    2401.2701    6877.8468    8882.4311    8877.5964   -832.54328    596.25154    900.01038    287.92219 
612870000   6.1287e+08    295.86609    87095.841    9384.0954      1.00761   -844.71687    2461.6035    10267.588    8958.1526    8926.5456   -1329.0982    -47.95303    422.72333    295.86507 
612880000   6.1288e+08    296.49654    87095.841    9879.2194      1.00761   -801.07785    2512.2879    9596.0111    9687.4082    10354.239   -1059.6554    375.83913    436.87408    296.49496 
612890000   6.1289e+08    293.05828    87095.841    8828.3911      1.00761   -892.20188     2382.741    7830.9957    8890.9698    9763.2078   -1814.9064     406.1732   -157.78412    293.05887 
612900000    6.129e+08    285.89468    87095.841    9525.5748      1.00761   -834.88757    2360.0017    8254.8741    9991.4249    10330.425   -1004.0754   -272.61107   -353.83806    285.89444 
612910000   6.1291e+08    291.00991    87095.841     8876.562      1.00761    -855.5178    2396.5345    7699.6724    10325.683    8604.3306   -449.02253    103.63706   -416.16429    291.00899 
612920000   6.1292e+08    293.38363    87095.841    9110.0403      1.00761   -843.90814    2434.6706    7305.2338    9376.7679    10648.119   -1759.0735   -8.0171527   -392.06574    293.38678 
612930000   6.1293e+08    294.75398    87095.841    8748.0318      1.00761   -898.15713    2395.7354    8431.7727    8834.1069    8978.2158     -1135.59    518.67433    787.12976    294.75352 
612940000   6.1294e+08    295.74129    87095.841    10085.622      1.00761   -932.07456    2372.8512    9954.2532    10503.629    9798.9833    -758.3305   -510.17917   -359.48738    295.74041 
612950000   6.1295e+08    288.78106    87095.841    8340.7533      1.00761   -850.87664    2376.2681    7065.1117    9267.0497    8690.0983   -1868.5314   -358.93996   -262.08094    288.77852 
612960000   6.1296e+08    296.58795    87095.841    9544.0239      1.00761   -859.08833    2455.2989    9065.3949    9481.8946    10084.782   -1400.1596    302.48285   -969.20197    296.58874 
612970000   6.1297e+08    289.90101    87095.841    9160.8552      1.00761   -921.52406    2318.1362    7902.9453    10360.146    9219.4743   -984.01054    22.168121     455.8042    289.90051 
612980000   6.1298e+08    300.22832    87095.841    9395.0978      1.00761   -905.99035    2449.0782    9381.7486    9918.7837    8884.7612   -733.41736    55.504699   -794.77375    300.22891 
612990000   6.1299e+08    287.20858    87095.841    8635.4307      1.00761   -803.40726     2406.165    8047.0559    9422.3155    8436.9206   -1500.6724   -425.78822    949.27239    287.20855 
613000000     6.13e+08    291.22195    87095.841    9812.6806      1.00761   -947.06395    2307.3579    9603.8285    9864.3608    9969.8525   -1036.5803    74.815236    33.048548    291.22197 
613010000   6.1301e+08    291.15896    87095.841     9431.298      1.00761   -853.85482    2399.8631    9765.6993    9824.4146    8703.7802   -1339.6307   -146.50099   -294.61757    291.15673 
613020000   6.1302e+08    288.11047    87095.841    9047.2618      1.00761   -938.07611    2281.5747    9142.5659    8969.4763    9029.7431    -1614.323   -35.714578   -92.188868     288.1117 
613030000   6.1303e+08    296.35191    87095.841    8425.1444      1.00761   -827.62564    2484.1238    6965.1729    9756.4013    8553.8592    -1515.386   -140.23394   -1560.2161    296.35271 
613040000   6.1304e+08    288.40871    87095.841    9602.3699      1.00761   -798.97988    2424.0039    9858.4591    9806.3963    9142.2542   -1382.5608   -332.69849     0.587986    288.40634 
613050000   6.1305e+08     296.7318    87095.841    9335.0549      1.00761   -831.82139    2484.1734    10333.404    8572.5196    9099.2416   -2283.4672     294.3379   -811.04021    296.73129 
613060000   6.1306e+08    295.32078    87095.841    9214.7422      1.00761   -863.22068    2437.0058    8422.6559    9949.5971    9271.9734   -1313.1869   -42.798915   -351.55729    295.32168 
613070000   6.1307e+08      292.542    87095.841    9481.9418      1.00761     -891.252    2377.9215    8356.7403    10048.055     10041.03   -504.08952    175.50562    363.59461    292.54066 
613080000   6.1308e+08    295.13441    87095.841    8635.1199      1.00761    -921.3846    2376.7592    7375.6871    9073.6421    9456.0304    -771.6052      -873.21   -1043.5147    295.13561 
613090000   6.1309e+08    291.20228    87095.841    8824.2666      1.00761   -806.55354    2447.6485    8001.0943    9746.6578    8725.0476   -837.15874   -937.75047    848.86486     291.2038 
613100000    6.131e+08    286.21096    87095.841    10181.854      1.00761   -813.35363    2385.0702    9606.4976    11103.766    9835.2982   -748.18102    400.31018    337.40031    286.21067 
613110000   6.1311e+08    294.65956    87095.841    9894.1122      1.00761    -839.8752    2452.9621    9714.1431    11391.781    8576.4123   -1310.0933   -750.73469    258.91252    294.65793 
613120000   6.1312e+08    288.24151    87095.841    9204.7041      1.00761   -820.56572    2400.5496    8519.1754    10329.474    8765.4627   -2065.8472   -220.81824    579.94907    288.24097 
613130000   6.1313e+08    293.37044    87095.841     8962.688      1.00761   -880.83563    2397.5957    8194.8639    9214.3565    9478.8435   -918.33097   -485.60567   -59.401047    293.37006 
613140000   6.1314e+08    290.12389    87095.841    8569.2816      1.00761   -811.43103      2430.72    8157.7012    9507.4536      8042.69    -767.0927   -476.14213   -372.52908    290.12384 
613150000   6.1315e+08    296.92145    87095.841    9018.3773      1.00761   -825.87879    2492.2353    8011.9291     9523.062    9520.1407   -1216.8914    112.24551   -911.84685    296.92086 
613160000   6.1316e+08    294.21367    87095.841    9580.8714      1.00761   -877.45325    2410.4013    10013.768     9910.906    8817.9398   -355.88517    2.5821331    104.05475    294.21287 
613170000   6.1317e+08    295.69825    87095.841    9233.5384      1.00761   -767.80542    2536.6393    8697.6113     10083.18    8919.8241   -668.73089   -69.724112    129.02155    295.69892 
613180000   6.1318e+08    294.29578    87095.841    9255.8004      1.00761    -831.3293    2457.4427    8618.1431    9560.9651     9588.293   -865.99612   -249.91722   -1055.0481    294.29658 
613190000   6.1319e+08    296.51969    87095.841    9577.1877      1.00761   -748.38985    2565.2346    9464.8108    9856.5478    9410.2046   -1074.7124    208.08344    717.07888    296.52051 
613200000    6.132e+08    296.92997    87095.841     8739.019      1.00761   -905.18691    2413.0224    7170.3946    9738.1714    9308.4909   -1066.3748    265.82026   -76.874101     296.9295 
613210000   6.1321e+08    289.29687    87095.841    8969.6236      1.00761   -846.95199     2385.957    8475.9461    10192.835    8240.0902   -560.81871   -535.94495   -439.02952    289.29805 
613220000   6.1322e+08    294.70153    87095.841    9551.2339      1.00761   -848.13452    2445.1719    9652.6128    9295.0135    9706.0753   -630.48124   -24.309948    51.671276    294.70239 
613230000   6.1323e+08    292.43069    87095.841    9602.3481      1.00761   -875.57203    2392.3575    9936.8586    10055.566    8814.6202   -682.64541    62.427089   -617.14445    292.43102 
613240000   6.1324e+08    294.50999    87095.841    8838.7113      1.00761   -773.23635    2517.9295    8863.5116    9627.8227    8024.7998   -1511.0304   -418.54297   -211.63783    294.50833 
613250000   6.1325e+08    296.55375    87095.841    9263.9885      1.00761   -922.60176    2391.4033    8984.6998    10041.192    8766.0739    -411.6147   -1029.9078   -502.04571    296.55261 
613260000   6.1326e+08    294.14948    87095.841    8742.5964      1.00761   -898.38321     2388.754    7862.6651    9370.6584    8994.4657   -662.92343   -137.58656    104.40488    294.14945 
613270000   6.1327e+08     298.1446    87095.841    9471.2135      1.00761   -867.93627    2463.8466    8386.4095    9949.7115    10077.519   -1479.8418   -506.05878   -444.69678    298.14524 
613280000   6.1328e+08    297.28014    87095.841    8367.7673      1.00761   -866.75938     2455.363    7434.4945    8615.3592    9053.4482   -888.19842   -71.471216    409.61686    297.27921 
613290000   6.1329e+08    294.49134    87095.841     9005.402      1.00761   -855.64564    2435.3118    9023.0782    9114.4451    8878.6827   -1626.6393    211.97814    673.96568    294.49134 
613300000    6.133e+08     291.4879    87095.841    8873.6399      1.00761   -896.36268    2361.0312    8666.7598    9892.8724    8061.2877   -776.40401    135.52991    555.53744    291.48824 
613310000   6.1331e+08    303.58479    87095.841    9712.1001      1.00761    -915.8778    2476.6995     9486.826    10229.385    9420.0899    191.66157    566.52213    -236.0607     303.5854 
613320000   6.1332e+08    295.85958    87095.841    9782.5475      1.00761   -870.70852    2435.5391    9827.8115    10163.096    9356.7349   -221.20721    471.94059    211.16621    295.85855 
613330000   6.1333e+08    291.17578    87095.841    9605.2051      1.00761   -876.69234    2377.2136    9419.1907    10152.621    9243.8033   -527.87619    221.76403    756.71963    291.17474 
613340000   6.1334e+08    291.92773    87095.841    9104.2912      1.00761   -837.36925    2424.9397    8639.7046    9130.4128    9542.7563    49.610899   -940.19849    197.61531    291.92717 
613350000   6.1335e+08    283.24818    87095.841    8825.1737      1.00761   -873.14709    2292.1674    8075.4045    9173.9209    9226.1956   -1134.8312    8.2856834   -397.06761    283.24772 
613360000   6.1336e+08    291.66042    87095.841    9091.2618      1.00761   -836.95175      2422.37    7642.5007    9187.7185    10443.566   -911.83181   -373.34185    606.10714    291.66135 
613370000   6.1337e+08    288.64349    87095.841    9645.6698      1.00761    -868.9118    2356.6956    9376.1425    10361.813     9199.054   -1209.4325    226.08111   -106.50707    288.64506 
613380000   6.1338e+08    287.18824    87095.841    8392.5077      1.00761   -845.60663    2363.7383    8033.1766    8981.4662    8162.8805   -773.60593   -1094.0877   -6.6767559    287.18725 
613390000   6.1339e+08     287.7623    87095.841    9108.9791      1.00761   -744.91392    2470.8461    8377.0507    10187.632    8762.2546    -1112.422   -683.20584    604.40716    287.76315 
613400000    6.134e+08    289.30161    87095.841    9244.4595      1.00761   -853.51563    2379.4463    8655.4389    9171.7074    9906.2323   -391.67285    569.11026    767.81418    289.30236 
613410000   6.1341e+08    292.02979    87095.841    9272.1277      1.00761   -853.96259    2409.4869    8892.8415    9371.1242    9552.4172   -1163.7735    198.63592   -260.36188    292.02895 
613420000   6.1342e+08    291.39194    87095.841    8560.6951      1.00761   -883.60691    2372.7146    7130.7782    9649.4619    8901.8451    -1160.567   -255.64191   -173.99282    291.39072 
613430000   6.1343e+08    292.22204    87095.841    10001.822      1.00761   -872.55658    2393.0414    9518.0819    10783.992    9703.3919   -203.22501   -250.45492    662.65019    292.22152 
613440000   6.1344e+08    297.39029    87095.841    8327.0525      1.00761   -893.05485    2430.2986    7980.3144    9256.7963    7744.0467   -806.68696   -98.406397   -68.453843    297.38918 
613450000   6.1345e+08    299.08565    87095.841    9482.7166      1.00761   -853.08515     2489.214    8853.0996    10085.515    9509.5358    -465.7774     305.1053    480.81719    299.08466 
613460000   6.1346e+08    291.71495    87095.841    9906.6858      1.00761   -858.70991    2401.2212    8854.8156    10649.628    10215.614   -575.07812    32.184554    311.23482    291.71472 
613470000   6.1347e+08    299.38709    87095.841    9729.1085      1.00761   -886.10448    2459.5633    8675.6918    10170.733    10340.901   -1248.0936   -348.27286    451.90994    299.38681 
613480000   6.1348e+08    292.17679    87095.841    8724.3906      1.00761    -907.5261    2357.5662    8206.3408    9745.2082     8221.623   -577.43063   -171.77205    264.34033    292.17726 
613490000   6.1349e+08    292.55126    87095.841    9471.6649      1.00761   -877.67933    2391.5977    8770.4214    9753.1408    9891.4326   -415.65951    155.34435    779.88365    292.54953 
613500000    6.135e+08    296.44417    87095.841    9039.7885      1.00761   -845.62414    2467.1563    8676.5731    9365.2188    9077.5735   -993.08941   -715.37904    415.92467    296.44322 
613510000   6.1351e+08    289.25735    87095.841    8767.3424      1.00761   -848.85504    2383.6123    8438.3809     9057.888    8805.7584   -1493.0781   -442.78091   -53.852725    289.25753 
613520000   6.1352e+08    288.55056    87095.841    8862.4464      1.00761   -844.61198     2379.957    8225.3132    9184.8812    9177.1448   -1244.3342    593.92109    208.66943    288.55105 
613530000   6.1353e+08    297.89556    87095.841    9535.4358      1.00761   -817.25107    2511.7488    9415.6482    9910.8994    9279.7598   -719.95816   -267.55205    -436.5739    297.89732 
613540000   6.1354e+08    291.67412    87095.841    9528.3306      1.00761   -856.58941    2402.8855    9555.7886    9963.2053     9065.998   -437.06965    198.87962    270.58542    291.67333 
613550000   6.1355e+08    289.49797    87095.841      9079.94      1.00761   -804.81134    2430.3449    8317.8517    9777.2407    9144.7276   -490.73715   -440.82719   -332.93695    289.49834 
613560000   6.1356e+08    290.18652    87095.841    8720.2698      1.00761   -860.92146    2381.9294    7997.3682    8656.8748    9506.5664   -11.113379   -93.080877   -8.9317991    290.18592 
613570000   6.1357e+08    290.64007    87095.841    8954.9344      1.00761   -837.30229     2410.617    8318.8806    10012.367    8533.5554   -960.97696    329.59134   -968.44031    290.64152 
613580000   6.1358e+08     286.5682    87095.841    10047.263      1.00761   -793.72075    2408.6952      9749.35    9673.0648    10719.375   -1924.2048     532.8214    553.81181    286.57035 
613590000   6.1359e+08    298.83283    87095.841    8467.4857      1.00761   -887.17488     2452.299    7395.5884    8637.3538     9369.515   -1314.8691   -817.78665    389.47288    298.83288 
613600000    6.136e+08     293.2245    87095.841    9356.5492      1.00761   -754.65152     2522.149    8413.6099    10078.268      9577.77    -215.6852     574.5276    331.29927      293.224 
613610000   6.1361e+08    284.11388    87095.841    9514.9838      1.00761    -861.4893    2313.4995    10547.577    9415.2278     8582.147   -51.261054     299.7203   -461.59451    284.11501 
613620000   6.1362e+08    297.37855    87095.841    8591.4548      1.00761   -859.13326     2464.089     7379.787    8937.9354    9456.6421    -817.3941   -640.18755    193.46011    297.37774 
613630000   6.1363e+08    299.60596    87095.841    8160.9018      1.00761   -816.57915    2531.5344    7053.2117    9515.0948     7914.399   -229.26469    29.629546   -670.14487    299.60557 
613640000   6.1364e+08    297.81854    87095.841    8349.2424      1.00761   -921.42249    2406.7166    7745.0952    9778.5119    7524.1201   -1126.0944   -433.00385   -1084.0943     297.8173 
613650000   6.1365e+08    291.76125    87095.841     8965.506      1.00761   -797.80933    2462.6392     7292.762    10163.236    9440.5202   -1547.9528   -151.77575    125.66626    291.76231 
613660000   6.1366e+08    292.80959    87095.841     9429.671      1.00761   -859.61172    2412.5521    7760.3342      11891.7     8636.979   -443.87439   -562.36032    98.665256    292.80974 
613670000   6.1367e+08    291.46475    87095.841    9671.0966      1.00761   -933.83657    2323.2986    8375.2507    10689.926    9948.1131   -1571.7474    134.09852    16.945826    291.46347 
613680000   6.1368e+08    291.14745    87095.841    9378.5862      1.00761   -817.08056    2436.5088    8159.8033    10578.284    9397.6716    -776.0968    734.23805    187.25053    291.14705 
613690000   6.1369e+08    294.75676    87095.841    8097.5598      1.00761   -892.18571    2401.7378    6242.6793     9259.653     8790.347   -767.52215   -1288.3359    225.00725    294.75718 
613700000    6.137e+08    297.04503    87095.841    9051.8711      1.00761   -826.39981    2493.0953    7237.3448    9974.6496    9943.6188   -1334.9667    565.77062   -148.13255    297.04301 
613710000   6.1371e+08    297.17326    87095.841    9449.4165      1.00761   -902.54902     2418.379    7906.8442    10793.097     9648.308   -488.35592   -179.63255    263.58644    297.17314 
613720000   6.1372e+08     288.0545    87095.841    8681.2988      1.00761   -831.06676    2387.9587     8066.397    9245.6086    8731.8909   -1726.0425    -211.9188    399.45272    288.05423 
613730000   6.1373e+08    298.03314    87095.841    8574.2393      1.00761   -861.55019    2468.9871    7411.3108    9725.0753    8586.3319   -2368.9287   -7.0590099    426.81261    298.03137 
613740000   6.1374e+08    301.44142    87095.841    9362.6509      1.00761   -903.55975    2465.0653     8432.218    10500.445    9155.2898   -598.26309    -466.3277   -246.20287    301.44289 
613750000   6.1375e+08    295.48055    87095.841    9182.7784      1.00761   -876.49735    2425.5146    8797.2384    10011.666    8739.4306   -1252.5931    278.48802    89.903088    295.48042 
613760000   6.1376e+08    291.35098    87095.841     8961.823      1.00761   -844.49771     2411.366    8297.7165     9411.659    9176.0934   -968.26576    617.18564    706.11257    291.35265 
613770000   6.1377e+08    292.47417    87095.841    9498.3905      1.00761   -742.47472    2525.9407     8603.255    10558.589    9333.3279   -1192.7694   -338.47417    505.14561    292.47396 
613780000   6.1378e+08    297.53234    87095.841    9495.9349      1.00761   -879.93857    2445.0022    8099.1199    10792.426    9596.2587   -656.45746    37.923829    610.45215    297.53262 
613790000   6.1379e+08    292.85691    87095.841    9507.9518      1.00761   -841.84105    2430.8516    8115.2587    10595.781    9812.8156   -692.11813   -258.44318    30.005794    292.85573 
613800000    6.138e+08    293.38146    87095.841    9109.4756      1.00761   -730.98814    2547.5664    7862.2597    10031.642    9434.5253   -524.05183    729.08606     470.7146    293.38117 
613810000   6.1381e+08    286.30106    87095.841    9271.9267      1.00761   -804.50182    2394.9288    8683.5841    9827.2687    9304.9274   -540.83972   -454.39615   -307.91986    286.30183 
613820000   6.1382e+08    298.26691    87095.841    8938.7934      1.00761    -809.6536     2523.496    7784.8161    10486.192     8545.372   -520.34775   -428.26802    283.01954    298.26644 
613830000   6.1383e+08    286.20246    87095.841    8653.1435      1.00761   -827.17353    2371.1552    6745.2934    10024.225    9189.9124   -742.73931    550.97839   -491.10843    286.20179 
613840000   6.1384e+08    299.13807    87095.841    8921.1406      1.00761   -886.33925    2456.5457    7895.7297    9349.0957    9518.5963   -1039.1867    221.53248   -719.70476    299.13941 
613850000   6.1385e+08    301.29726    87095.841    8551.1435      1.00761   -773.65427    2593.3598    7553.1367    9397.8799    8702.4139   -542.80285     44.48804    42.962543    301.29801 
613860000   6.1386e+08    297.33034    87095.841    8406.0032      1.00761   -835.65065    2487.0328    7210.2988    9441.0147    8566.6963   -474.74977    -272.3921    669.90552    297.33009 
613870000   6.1387e+08    285.31386    87095.841    8971.7028      1.00761   -833.03933    2355.3593    8287.1842    9562.1346    9065.7897   -867.59708   -551.27103   -300.75231    285.31589 
613880000   6.1388e+08    300.01397    87095.841    8830.9305      1.00761    -813.4319    2539.2412    8693.1919      9917.56    7882.0397    -1141.008    46.347649   -540.52677    300.01264 
613890000   6.1389e+08     287.0811    87095.841    8990.5225      1.00761   -808.52067    2399.6269    7805.5556    9579.0777    9586.9342   -1246.2597   -222.91499   -574.88934    287.08287 
613900000    6.139e+08    295.54711    87095.841    8001.9354      1.00761   -815.67493    2487.0808    6891.0567    9045.7097    8069.0397   -1982.5419    596.64582    94.629736    295.54648 
613910000   6.1391e+08    288.88689    87095.841    8875.3273      1.00761   -924.29404    2304.0333    7265.2967    10257.417    9103.2679   -1400.4442    165.93303    392.86023    288.88642 
613920000   6.1392e+08    292.08546    87095.841    8877.1743      1.00761   -882.39856    2381.6731    7120.3335    10772.662    8738.5277   -840.22105    17.810472    126.49042    292.08609 
613930000   6.1393e+08    294.55015    87095.841    8000.5169      1.00761   -897.48193    2394.1328    6154.1297     9028.548    8818.8731   -1240.2707    109.55474    771.53204     294.5491 
613940000   6.1394e+08    294.07497    87095.841    10138.966      1.00761   -832.08911    2454.2154    9691.7852     11073.67    9651.4428   -761.20977     347.3366    39.103562    294.07615 
613950000   6.1395e+08    290.09509    87095.841    9418.3891      1.00761    -886.2264    2355.6027    9619.7686    9988.8014    8646.5973   -1235.0971    113.41807    134.98492    290.09558 
613960000   6.1396e+08    290.27352    87095.841    9287.2502      1.00761   -890.79904     2353.024    8302.0807    9438.3526    10121.317   -1276.4778     334.2319    162.33536    290.27366 
613970000   6.1397e+08    293.25981    87095.841    10124.602      1.00761   -768.02777    2509.1672    9498.8149    11001.157    9873.8349   -693.41199   -378.11888   -305.23326     293.2602 
613980000   6.1398e+08    285.21728    87095.841     9493.249      1.00761   -851.37602    2335.9433     8624.959    10192.808    9661.9799   -1370.1562   -54.977741      149.059    285.21868 
613990000   6.1399e+08    291.12186    87095.841    9540.2348      1.00761   -774.47122    2478.8321    8235.0027    10599.335    9786.3664   -2427.3568   -955.51817    128.73413    291.12155 
614000000     6.14e+08    291.59423    87095.841    8908.6042      1.00761   -791.72162    2466.8604    8110.7238    10020.296    8594.7924   -999.24261   -930.84517      350.513    291.59401 
614010000   6.1401e+08    287.55464    87095.841    9307.7689      1.00761   -812.91723    2400.5222    8399.2816    9957.2636    9566.7616   -510.09079    402.96271   -2.6912006    287.55469 
614020000   6.1402e+08     296.1244    87095.841    9592.3132      1.00761   -868.45742    2440.7496    8397.1523    10535.197    9844.5908   -1011.2574   -25.068003    401.77469    296.12364 
614030000   6.1403e+08    292.34593    87095.841    8761.8219      1.00761   -901.02797    2365.9544    8379.2458    9499.3173    8406.9025   -622.38217   -184.57111     140.1203    292.34617 
614040000   6.1404e+08    287.00369    87095.841    8869.6238      1.00761   -883.72359     2323.559    9154.6911    8940.1421    8514.0381   -564.80525   -1456.7742    -227.5447    287.00358 
614050000   6.1405e+08    289.99559    87095.841    9015.7653      1.00761   -857.45161    2383.2657    8570.2068    9622.2279    8854.8612   -753.82899    272.87401    78.859957    289.99526 
614060000   6.1406e+08    290.33639    87095.841    9440.6297      1.00761   -891.95678    2352.5688    8475.3796     9557.114    10289.396   -1864.9928   -525.09467    251.33483     290.3365 
614070000   6.1407e+08     288.1929    87095.841     9182.139      1.00761   -938.29471    2282.2773    7786.1608    10105.502     9654.754   -1430.9714   -72.389751    420.59371    288.19245 
614080000   6.1408e+08    296.61854    87095.841    9207.0799      1.00761   -774.13505     2540.594    8601.1305    9470.0091       9550.1   -1281.0921   -113.24267    278.26278    296.61901 
614090000   6.1409e+08    295.97507    87095.841    8502.7989      1.00761   -772.95593    2534.5823    7434.5263    9292.3134    8781.5571   -1391.9424   -164.34234   -205.85549    295.97565 
[...]
809080000   8.0908e+08    289.43778    87095.841    9497.7457      1.00761   -795.24887    2439.2347     9107.548     9628.827    9756.8619   -1300.8431   -70.496811    481.19636    289.43796 
809090000   8.0909e+08    292.77089    87095.841    7551.9455      1.00761   -772.72924    2499.0021    6644.6471    8250.3243    7760.8651   -678.33211    -14.52898     257.0601    292.77298 
809100000    8.091e+08    292.18232    87095.841    9617.8714      1.00761   -810.83887    2454.3152    8725.0932    9968.3626    10160.158   -328.61795    63.281044   -569.51635    292.18313 
809110000   8.0911e+08    295.10392    87095.841     8773.375      1.00761   -807.66099    2490.1421    8474.2265    9478.9908    8366.9076   -328.82975   -82.674405   -186.95884    295.10473 
809120000   8.0912e+08    298.04628    87095.841    9097.5886      1.00761   -811.15309     2519.531     8021.744     9292.413    9978.6088   -1825.7069   -557.98182   -549.51413    298.04707 
809130000   8.0913e+08    296.22278    87095.841     9280.695      1.00761    -851.2816    2459.0248    8249.6715      9915.27    9677.1436   -255.96942   -40.099756    54.573561    296.22328 
809140000   8.0914e+08    294.87229    87095.841    9162.1969      1.00761   -810.87937    2484.3352    7972.8147    10292.664    9221.1118   -616.91306    310.85396   -94.526236    294.87451 
809150000   8.0915e+08    290.60077    87095.841    8204.2801      1.00761   -844.85197    2402.6282    7662.0049    9430.6221    7520.2131   -561.93392   -501.90577    991.68007    290.60137 
809160000   8.0916e+08    287.42575    87095.841    8373.3522      1.00761    -839.2097    2372.7894    6933.1452    8925.0132    9261.8984   -480.26187   -187.65987    879.71594    287.42546 
809170000   8.0917e+08    293.05602    87095.841     9315.728      1.00761   -849.03549    2425.8822    8430.3855    10150.629    9366.1699   -834.27409   -606.26409    1211.0171    293.05459 
809180000   8.0918e+08    291.08113    87095.841    8743.0338      1.00761   -773.50745    2479.3408    8343.3587     9352.656    8533.0868   -811.51387    498.93779    772.85195    291.07982 
809190000   8.0919e+08    290.95421    87095.841    8528.0753      1.00761   -864.98485     2386.445    7334.4681    9474.6393    8775.1184   -1246.4527   -126.25632    12.718218     290.9549 
809200000    8.092e+08    300.25456    87095.841    9985.3659      1.00761    -882.8094    2472.5523    9515.0954    10338.765    10102.237   -761.26937    193.38842     426.1618    300.25498 
809210000   8.0921e+08      293.617    87095.841    9491.1342      1.00761    -914.8736     2366.313    9373.7252    10074.176    9025.5017   -243.76643    313.02725    396.13754    293.61751 
809220000   8.0922e+08    288.81114    87095.841    8497.8286      1.00761   -924.56333    2302.9176     7295.279    8838.3656    9359.8412   -1400.3347    233.83885   -74.794613    288.81047 
809230000   8.0923e+08    292.28475    87095.841    9546.6077      1.00761   -847.21892    2419.0798    9545.3152     9803.964    9290.5438   -737.71396    807.39496    458.69058    292.28467 
809240000   8.0924e+08    297.06785    87095.841     9435.399      1.00761   -818.02013      2501.73    8558.5361    9807.4824    9940.1785   -1107.3042     406.8831    323.37873    297.07035 
809250000   8.0925e+08    297.80114    87095.841    8675.0231      1.00761   -845.55413    2482.3906    8694.1933    8622.4227    8708.4534   -1465.3985     160.4471    478.23568    297.80117 
809260000   8.0926e+08    295.24348    87095.841    9826.0793      1.00761   -890.92952    2408.4332    9186.1955    10069.194    10222.848   -1197.5573    23.791589   -709.19999    295.24411 
809270000   8.0927e+08    292.78516    87095.841    9588.5746      1.00761   -832.81228    2439.0785    9078.5994    9914.5536    9772.5708    -487.2743   -294.02683   -527.84214    292.78575 
809280000   8.0928e+08    289.99471    87095.841    9788.9193      1.00761   -815.39053    2425.3169    8536.7961    10586.113    10243.849   -510.37815    130.61475   -192.80589    289.99446 
809290000   8.0929e+08    285.97697    87095.841    9465.3901      1.00761   -864.36337    2331.4455    9540.3269    9099.8249    9756.0184    347.08686    473.68088    51.490908    285.97598 
809300000    8.093e+08    287.06892    87095.841    9152.1333      1.00761   -966.53981    2241.4717    9630.9832    8670.1209    9155.2959   -82.582181    248.50185    401.15215    287.06914 
809310000   8.0931e+08    298.84394    87095.841    8559.5137      1.00761   -821.07536    2518.5227    7662.7431    8722.8032    9292.9948     69.72367   -521.22077   -475.38066     298.8436 
809320000   8.0932e+08    285.19043    87095.841    8630.6404      1.00761   -857.93601    2329.0833     7451.115    8957.9682    9482.8381   -1218.2954   -1134.1965   -552.07274    285.19057 
809330000   8.0933e+08    291.97983    87095.841     9245.226      1.00761   -823.60164    2439.2896    8638.4095    8931.9149    10165.354   -1379.4338   -130.51995    104.21654    291.97971 
809340000   8.0934e+08    292.33264    87095.841    9069.8161      1.00761   -820.44221    2446.3916    8851.9827    9627.3599    8730.1058   -978.08455   -104.98979   -1091.9598    292.33368 
809350000   8.0935e+08    291.62029    87095.841    8661.7632      1.00761   -903.08098    2355.7923     7402.797    8293.6841    10288.809   -1443.8282    31.583016    959.65416    291.62028 
809360000   8.0936e+08    296.34978    87095.841    8986.6493      1.00761   -856.54628    2455.1793    8944.1067    8400.7087    9615.1326   -810.00892   -641.49914   -209.63196    296.35082 
809370000   8.0937e+08    301.96717    87095.841    9800.7853      1.00761   -837.33374    2537.1666    9758.1285    9983.1584    9661.0689   -337.83908    450.27275    151.12114    301.96826 
809380000   8.0938e+08    291.92153    87095.841    8652.8687      1.00761   -870.15578    2392.0839    7606.7242    9080.0326    9271.8493   -409.51224    406.34714   -293.09387    291.92155 
809390000   8.0939e+08    293.57667    87095.841    9327.7376      1.00761   -932.50409    2348.2319    9437.3927    9295.2867    9250.5335    -879.7708    179.64757   -612.99252    293.57593 
809400000    8.094e+08    292.60709    87095.841    9385.9124      1.00761   -897.40112    2372.4997     8479.153    9655.9938     10022.59   -2003.2147    -64.30689   -145.44934    292.60515 
809410000   8.0941e+08    293.76013    87095.841    9216.0544      1.00761   -813.95581    2468.8304     7938.685    9391.9963    10317.482   -1558.3702      132.777   -297.15341    293.76079 
809420000   8.0942e+08    297.08823    87095.841    8484.5236      1.00761   -835.13222    2484.8456    7875.4427    9222.6319    8355.4961   -1037.4967   -160.99062    363.00462    297.08849 
809430000   8.0943e+08    290.34041    87095.841    10094.468      1.00761   -869.74255     2374.828    10208.639    9703.8577    10370.908   -457.60957    891.51357   -90.330692     290.3417 
809440000   8.0944e+08    292.53302    87095.841    9849.3695      1.00761   -911.71242    2357.3607    9123.0708    10669.673    9755.3651   -372.80132   -786.63762    527.01694      292.533 
809450000   8.0945e+08    301.25993    87095.841     8638.277      1.00761   -947.55105    2419.0458    8831.4371    8210.2984    8873.0956   -1517.8843    1.3924545   -88.591127    301.26044 
809460000   8.0946e+08    291.77573    87095.841    8727.4461      1.00761   -865.78175    2394.8286    7300.1265    10122.628    8759.5841   -1042.8017    304.11243    176.94885     291.7759 
809470000   8.0947e+08    284.63413    87095.841    8488.2529      1.00761   -816.43435    2364.3683    7513.0434    8930.9619    9020.7535   -781.37327    306.91715     381.2179    284.63228 
809480000   8.0948e+08    294.30715    87095.841     9084.701      1.00761   -858.78944    2430.1097    8735.4644    9275.2243    9243.4142   -1231.2811    334.11086    183.97183    294.30728 
809490000   8.0949e+08    293.79016    87095.841    9172.7907      1.00761   -877.22666    2405.8951    9532.8572    9056.0305    8929.4845   -1184.4275    395.63063    115.23168    293.79119 
809500000    8.095e+08    287.67711    87095.841    9361.6979      1.00761   -935.61596    2279.1922    8898.2516    9805.9844    9380.8577   -486.45586    228.94049    479.97223    287.67752 
809510000   8.0951e+08    295.76528    87095.841     8871.121      1.00761   -834.70876     2470.485    8480.3864    8114.3261     10018.65   -807.92682    586.86355    325.07342     295.7646 
809520000   8.0952e+08     288.5934    87095.841    8614.4074      1.00761   -950.50444    2274.5432    6540.1142    10433.658    8869.4498    109.62441    153.15299   -928.85176     288.5951 
809530000   8.0953e+08    292.23604    87095.841     9114.085      1.00761   -812.29626    2453.4581    9458.0963    8893.3705    8990.7882   -507.65391    302.42591   -735.31873    292.23773 
809540000   8.0954e+08    288.95961    87095.841    9140.4316      1.00761   -818.13672    2411.0033    7054.2816    9943.5806    10423.432   -817.58053    618.06061   -18.791409    288.95867 
809550000   8.0955e+08    294.65086    87095.841    10080.556      1.00761   -926.14352    2366.5966      9011.78    10423.359     10806.53   -276.57969   -640.57128   -89.205021    294.64988 
809560000   8.0956e+08    291.48469    87095.841    8386.5994      1.00761   -838.66174    2418.6963    8023.1432    7560.9835    9575.6715   -437.40967    480.07779   -463.29803     291.4827 
809570000   8.0957e+08    293.79825    87095.841    9724.2849      1.00761   -956.54018    2326.6719    9136.2639     9721.087    10315.504   -1180.8616   -668.91427    604.96667    293.79928 
809580000   8.0958e+08    291.45466    87095.841    9645.9713      1.00761   -934.99546     2322.027    8898.5213    10400.747    9638.6453   -945.33046    333.44639   -145.36862    291.45462 
809590000   8.0959e+08    287.96078    87095.841    8564.7113      1.00761   -957.92861    2260.0495    8006.3707    9494.9612    8192.8021    154.40001   -48.718689    334.70652    287.95944 
809600000    8.096e+08    296.75718    87095.841    9708.3167      1.00761   -866.22682    2450.0515    9640.9508    10319.965    9164.0339    -1180.683    393.10481    -723.2114    296.75649 
809610000   8.0961e+08     291.2392    87095.841    9723.4803      1.00761   -942.20295    2312.4117    9392.6675    10604.787    9172.9863    122.83417   -183.41826    371.42851    291.24071 
809620000   8.0962e+08    292.28258    87095.841     9677.464      1.00761   -927.62934    2338.6451    10315.249     9595.769    9121.3741    -470.8112   -391.67951     14.87339    292.28264 
809630000   8.0963e+08    294.32852    87095.841    8246.8276      1.00761   -885.62298     2403.515    7738.8414    8434.8449    8566.7964   -997.83851   -77.007485    224.55399    294.32759 
809640000   8.0964e+08    293.94346    87095.841    9263.1724      1.00761   -929.12454    2355.7104    7384.3726     10139.37    10265.775   -1012.4419   -118.29389   -58.866434    293.94201 
809650000   8.0965e+08    294.39111    87095.841    8522.7899      1.00761    -849.3604    2440.4769    6705.1195    9677.1338    9186.1163   -616.50831   -356.75897    426.54825    294.39157 
809660000   8.0966e+08    290.19686    87095.841    9578.4549      1.00761    -965.6524     2277.314    9135.0876    9891.6698    9708.6073   -334.39122   -176.72935    -11.85092    290.19745 
809670000   8.0967e+08    295.41862    87095.841     8932.056      1.00761   -911.83869    2389.4812    7996.8646      10447.3    8352.0032    166.27298    611.62395    84.223241    295.41845 
809680000   8.0968e+08    295.49008    87095.841    9063.3071      1.00761   -887.00103    2415.1175    8210.1195    9442.7494    9537.0524   -1085.4616    -729.0394   -584.80489    295.49081 
809690000   8.0969e+08    289.05206    87095.841    10137.557      1.00761   -922.88307    2307.2901     8925.796    10932.219    10554.655   -1220.2831    858.46866    16.747712    289.05344 
809700000    8.097e+08    294.91144    87095.841    9870.7855      1.00761   -887.68143    2407.9707    9023.2148    10858.097    9731.0453   -542.12966     262.7917    325.80089    294.90897 
809710000   8.0971e+08    302.54545    87095.841    8763.8181      1.00761   -855.76123    2525.2014    6702.1962     9478.953    10110.305   -1172.6639   -351.51335     452.7336     302.5445 
809720000   8.0972e+08    289.27487    87095.841    9558.6671      1.00761   -920.76958    2311.8936    8918.6012    9961.1275    9796.2726   -1234.4716   -642.43102    -438.0955    289.27537 
809730000   8.0973e+08    295.24907    87095.841    9221.7651      1.00761    -861.9152    2437.5099    9063.2381    9448.2063    9153.8509   -973.75969     907.0447    -1003.406     295.2483 
809740000   8.0974e+08    300.39739    87095.841    9450.2612      1.00761   -953.57949    2403.3784    8976.7734    9842.9393    9531.0709   -624.37827   -594.76673    91.541519    300.39635 
809750000   8.0975e+08    289.08442    87095.841    8630.9304      1.00761   -852.68096    2377.8539    6222.4016    9468.9925    10201.397   -490.79819    423.03813    203.45239    289.08448 
809760000   8.0976e+08    294.96394    87095.841    9027.7557      1.00761   -822.60948    2473.6294    7736.0882    10330.354     9016.825   -1125.7686    334.20777    1039.4364    294.96375 
809770000   8.0977e+08    295.42489    87095.841     9100.782      1.00761   -816.89018    2484.4998     8574.938    9906.8803    8820.5277   -675.49242    791.98704    136.23809    295.42588 
809780000   8.0978e+08    288.22669    87095.841    8284.0092      1.00761   -878.97349    2341.9762    6686.9374    8636.3035    9528.7866    -1188.836     10.13476    26.858286    288.22704 
809790000   8.0979e+08    288.63463    87095.841    8691.4367      1.00761   -865.64671    2359.8617    6986.1797    9312.3198    9775.8107   -322.31567     188.3538    127.29643    288.63527 
809800000    8.098e+08    290.81279    87095.841     8179.192      1.00761   -823.52628    2426.3232    7512.4761    8426.4124    8598.6875   -1266.9975    964.83141    19.933898    290.81199 
809810000   8.0981e+08    293.45066    87095.841     9430.096      1.00761   -870.61943    2408.7084    8815.5005    10101.477    9373.3106   -290.57018   -131.92803   -411.67155    293.45184 
809820000   8.0982e+08    297.38932    87095.841    8624.4768      1.00761    -977.7918    2345.5508    8872.6035    8608.5821    8392.2447    -431.1414   -14.705235   -5.3053046    297.38813 
809830000   8.0983e+08    298.97973    87095.841    9732.2952      1.00761   -954.81672    2386.2987    9777.3289    9850.9568    9568.5999   -324.42389    124.19006   -383.84817    298.97884 
809840000   8.0984e+08    286.55483    87095.841    8344.7885      1.00761   -998.31751     2203.949    7246.2634     8940.432    8847.6702   -1047.7984    1036.5102    453.13403    286.55495 
809850000   8.0985e+08    292.53564    87095.841    9530.3587      1.00761   -923.57006    2345.5324    9493.0179    10090.193    9007.8651   -1111.1429   -217.34304   -96.000187    292.53529 
809860000   8.0986e+08    297.21571    87095.841    9200.4102      1.00761   -954.41949    2366.9829    7924.6465    10017.113    9659.4708   -1139.2625    68.947372   -125.98622    297.21669 
809870000   8.0987e+08    283.35822    87095.841    8329.7017      1.00761   -904.49674    2262.0475    7700.1173    9159.6504    8129.3373    316.53873    147.91715    654.31279    283.35732 
809880000   8.0988e+08    294.07116    87095.841    9318.7213      1.00761    -965.7356    2320.5263    9190.6606    9172.1694    9593.3338    -1935.212   -568.34733   -137.80266    294.07099 
809890000   8.0989e+08    292.24917    87095.841    8328.0788      1.00761    -902.8646    2363.0365    6981.1627    9041.9124    8961.1613   -894.52234    288.98053    766.29011    292.24849 
809900000    8.099e+08    290.15322    87095.841    8471.8197      1.00761   -991.35636    2251.1224    8247.7472    8807.7606    8359.9514   -1168.8641    110.59453   -592.26418    290.15331 
809910000   8.0991e+08    286.95242    87095.841    9152.1919      1.00761   -876.60792    2330.1017    9321.4075    8766.5923     9368.576   -515.30613   -269.96876    482.60385    286.95377 
809920000   8.0992e+08    289.08606    87095.841    8671.4354      1.00761   -858.35077    2372.2024    7786.6585    9156.6624    9070.9852   -9.4093786  -0.72743867    689.25888     289.0869 
809930000   8.0993e+08    293.25744    87095.841    9279.4165      1.00761   -900.47428    2376.6943    9658.7012    8985.8768    9193.6714   -1254.4384   -250.83979    721.35796    293.25854 
809940000   8.0994e+08    295.12219    87095.841    8907.2758      1.00761   -901.48383    2396.5235    7798.5936    8972.7437    9950.4902   -959.02886   -678.90924    438.95049    295.12337 
809950000   8.0995e+08    286.50176    87095.841    9058.7575      1.00761   -882.43935    2319.2341    7913.9434    9131.2716    10131.058    -1004.313    22.378935     559.1759    286.50238 
809960000   8.0996e+08    293.20592    87095.841    8369.1557      1.00761   -897.48274    2379.1101     8331.122    8019.5215    8756.8235   -1545.6883   -476.04032   -102.05259    293.20496 
809970000   8.0997e+08    292.82248    87095.841    9047.8999      1.00761    -904.6038    2367.7041    8412.8454    9598.2312    9132.6231  -0.92240116    183.51435    1189.0623    292.82237 
809980000   8.0998e+08     291.1096    87095.841    9415.5788      1.00761   -837.83179    2415.3346    9619.9787     9423.925    9202.8326   -1142.8938    318.53105    338.59263     291.1098 
809990000   8.0999e+08    300.43879    87095.841    8435.7095      1.00761   -914.62427    2442.7963     7900.445    9787.3345    7619.3491   -791.18786    548.57447     429.9174     300.4401 
810000000      8.1e+08    296.55072    87095.841    9479.5946      1.00761   -819.85921    2494.1119    8944.3322    9484.2138    10010.238   -513.85879   -56.109863    36.191946    296.55093 
Loop time of 33225.7 on 48 procs for 100000000 steps with 3750 atoms

Pair  time (%) = 11921.8 (35.8812)
Bond  time (%) = 2177.45 (6.55352)
Neigh time (%) = 6260.17 (18.8414)
Comm  time (%) = 9196.03 (27.6775)
Outpt time (%) = 0.971536 (0.00292405)
Other time (%) = 3669.29 (11.0435)

Nlocal:    78.125 ave 88 max 63 min
Histogram: 1 0 4 1 7 6 15 4 7 3
Nghost:    1455.6 ave 1476 max 1430 min
Histogram: 2 1 3 6 7 9 7 3 7 3
Neighs:    7459.15 ave 8449 max 5907 minGenerated thermo.dat
Done!
stress
average  1097.6
square average  1.21825*10^06
number of blocks  800
variance  4.11160552582564758864
pxx
average  8485.53
square average  7.20346*10^07
number of blocks  800
variance  6.16244869146997442163
pyy
average  9757.13
square average  9.52219*10^07
number of blocks  800
variance  5.03911737063148788094
pzz
average  9338.72
square average  8.72288*10^07
number of blocks  800
variance  4.62449478321686508527
xx
average  2182.44
square average  4.76303*10^06
number of blocks  800
variance  .13394775100762237135
yy
average  2183.46
square average  4.76751*10^06
number of blocks  800
variance  .12464148587047572580
zz
average  2182.67
square average  4.76404*10^06
number of blocks  800
variance  .10203492049293712268
xx
average  6767.35
square average  4.58274*10^07
number of blocks  800
variance  6.16177505877973445516
yy
average  8038.14
square average  6.4632*10^07
number of blocks  800
variance  5.03802297533466990837
zz
average  7620.36
square average  5.80869*10^07
number of blocks  800
variance  4.61159820452736320127
pressure, stress.strain, ktensor, virial are all concatenated
averages computed will all accumulated data until now

Histogram: 1 2 1 3 3 10 12 7 6 3

Total # of neighbors = 358039
Ave neighs/atom = 95.4771
Ave special neighs/atom = 6.26667
Neighbor list builds = 11141689
Dangerous builds = 0
System init for write_restart ...

real	1107m4.322s
user	0m0.084s
sys	0m0.267s
