LAMMPS (10 Feb 2015)
Read molecule SQL:
  30 atoms with 3 types
  29 bonds with 1 types
  34 angles with 1 types
  31 dihedrals with 2 types
  0 impropers with 0 types
Reading restart file ...
  restart file = 28 Jun 2014, LAMMPS = 10 Feb 2015
WARNING: Restart file used different # of processors (../read_restart.cpp:705)
  triclinic box = (112.396 112.396 112.396) to (157.604 157.604 157.604) with tilt (0 0 0)
  3 by 4 by 4 MPI processor grid
  3750 atoms
  3625 bonds
  4250 angles
  3875 dihedrals
250 atoms in group endatoms
WARNING: New thermo_style command, previous thermo_modify settings will be lost (../output.cpp:665)
Neighbor list info ...
  1 neighbor list requests
  update every 1 steps, delay 0 steps, check yes
  master list distance cutoff = 10.3
Setting up run ...
Memory usage per processor = 2.182 Mbytes
Step Time Temp Volume Press Density PotEng TotEng Pxx Pyy Pzz Pxy Pyz Pxz myT 
       0            0    294.09624    92391.171    3466.1926   0.96344716   -390.86614     2895.676    4205.8374    2741.9897    3450.7508    226.39681    256.03452   -267.99689    294.09624 
    1000         1000    298.49762    92391.171    4516.4476   0.96344716   -419.36075    2916.3671    4509.0616    4233.8765    4806.4046    513.72132    48.817187    119.40689    298.49762 
    2000         2000    292.32715    92391.171    3163.7466   0.96344716   -359.48843     2907.284    4014.6728    2177.9398    3298.6272    568.61938    793.61955    52.272053    292.32715 
    3000         3000    294.14918    92391.171      3962.76   0.96344716   -407.67085    2879.4629    3336.0425    4636.3404    3915.8971   -1333.5182    320.23054    70.107402    294.14918 
    4000         4000    295.92948    92391.171    2805.3035   0.96344716   -281.60841    3025.4203    2790.5676    2882.5464    2742.7964    398.18222   -656.85804   -120.15265    295.92948 
    5000         5000    285.36811    92391.171    4253.6691   0.96344716   -408.61361    2780.3912    4751.0633     4370.511    3639.4329   -1124.2483    63.065228   -1462.6186    285.36811 
    6000         6000    294.73841    92391.171    4466.8349   0.96344716   -351.56577    2942.1527    4558.3668    5475.1437    3366.9941   -1434.3248   -264.04044   -113.03277    294.73841 
    7000         7000    288.79514    92391.171    5600.6004   0.96344716   -298.44176    2928.8604     4957.362    6030.3483     5814.091   -836.96585    203.35631    530.89289    288.79514 
    8000         8000    289.02176    92391.171    3151.7327   0.96344716   -322.44844    2907.3861    2766.4547    4069.5916    2619.1517  -0.81070587     423.6173   -935.40664    289.02176 
    9000         9000    290.91683    92391.171    3575.7391   0.96344716   -269.74099    2981.2712    3730.8354    3761.6343    3234.7475   -1394.7744    154.70806   -1246.8062    290.91683 
   10000        10000    295.01085    92391.171     4394.164   0.96344716   -261.55946    3035.2035    4359.3394      5340.29    3482.8627   -1376.3274    718.59356   -74.741362    295.01085 
   11000        11000    292.22421    92391.171    3783.5775   0.96344716   -301.27254    2964.3497    3501.1126     3606.834    4242.7858   -532.42359    459.34713    -361.6204    292.22421 
   12000        12000    294.97525    92391.171    5003.4242   0.96344716   -272.18019     3024.185    5675.0386    3853.4053    5481.8288   -1915.0329   -154.55868   -439.76324    294.97525 
   13000        13000    299.93857    92391.171    4737.7115   0.96344716   -252.73318    3099.0974    4012.5283    4556.9694    5643.6368   -1800.6997    40.273879    248.71093    299.93857 
   14000        14000    293.03366    92391.171    4529.6943   0.96344716   -234.64863    3040.0192    5074.5926    4181.0116    4333.4788   -1359.9864    208.28471   -87.244457    293.03366 
   15000        15000    289.22456    92391.171    3527.3363   0.96344716   -254.17068    2977.9302    3253.3372    3514.1433    3814.5284   -1768.1103   -280.43351    965.00194    289.22456 
   16000        16000    296.33229    92391.171    4574.2566   0.96344716   -214.85393    3096.6763    4222.4703    5834.4784    3665.8211   -1311.2123   -320.60499   -594.86127    296.33229 
   17000        17000    292.93456    92391.171    3865.1303   0.96344716   -181.48607    3092.0743    3467.6024    3982.1319    4145.6568   -1666.4046   -494.03973    430.51002    292.93456 
   18000        18000     293.4223    92391.171    5016.5663   0.96344716   -142.35438    3136.6565    4535.5778     5562.278     4951.843   -1207.1548    594.27086    118.41974     293.4223 
   19000        19000    293.32921    92391.171    5983.7086   0.96344716   -93.321512    3184.6491    5420.0672    6487.3423    6043.7165   -2261.5987    663.05064   -500.49572    293.32921 
   20000        20000     289.4981    92391.171    5428.8797   0.96344716   -134.64502    3100.5127    5295.8124    6423.5495    4567.2772   -1799.7375   -75.360162     159.5562     289.4981 
   21000        21000    291.37245    92391.171     4835.746   0.96344716    -18.34026    3237.7635    3752.6038    5795.7417    4958.8924   -1469.8085    43.736878    55.768573    291.37245 
   22000        22000    292.03872    92391.171    4834.6224   0.96344716   -95.126971    3168.4224    5204.2101    4693.0331    4606.6241   -1236.5154   -859.84611    983.86687    292.03872 
   23000        23000    294.82786    92391.171    6102.9653   0.96344716   -61.045885    3233.6722    6830.9037    6167.8281     5310.164   -1918.6164   -93.570705    434.24923    294.82786 
   24000        24000    294.45593    92391.171    5382.2754   0.96344716   -58.301143    3232.2607     5837.345    4489.0522    5820.4291   -1333.1698    71.846861    695.83136    294.45593 
   25000        25000    291.19889    92391.171    4265.9889   0.96344716   -1.6553344    3252.5088    5394.5444    3207.6768    4195.7454   -1224.7375     917.7884    172.05282    291.19889 
   26000        26000    292.81732    92391.171    5714.8166   0.96344716   -99.608267    3172.6419     4972.265    6489.0626    5683.1222   -921.62405    266.79969     1541.064    292.81732 
   27000        27000    296.11576    92391.171    4322.0217   0.96344716   -68.306141    3240.8043    4389.9422    3949.0085    4627.1143   -1193.6967   -927.52863     494.9503    296.11576 
   28000        28000    299.81457    92391.171    4379.5249   0.96344716   -44.895257    3305.5497    4873.7564     5114.455    3150.3632   -795.16054   -398.79184   -338.69495    299.81457 
   29000        29000     299.6474    92391.171    6262.9294   0.96344716    22.856248     3371.433    5836.7411    7123.2539    5828.7933   -2430.2194   -117.38407   -50.325683     299.6474 
   30000        30000    291.74915    92391.171    4180.1105   0.96344716    -57.27116    3203.0422    5167.3208    3035.8027    4337.2079   -780.35561    508.46546    425.59745    291.74915 
   31000        31000    288.11932    92391.171    5437.0413   0.96344716    60.275231     3280.025    4719.7169    5824.0173    5767.3896   -1047.6334    923.62444    214.58637    288.11932 
   32000        32000    291.37115    92391.171    5532.3233   0.96344716   -1.6732022     3254.416    5358.5997    5336.3324    5902.0377   -1343.7866    91.239881   -535.97016    291.37115 
   33000        33000    297.46208    92391.171    5328.8993   0.96344716     93.63516    3417.7908    5989.7294    5131.1183    4865.8502    -264.3418    659.09431    1285.5566    297.46208 
   34000        34000    294.60378    92391.171    5818.3548   0.96344716   -26.561042     3265.653    5755.8727    5811.8048     5887.387   -1395.2723   -361.40927   -118.60904    294.60378 
   35000        35000    291.04675    92391.171    6071.0678   0.96344716    109.03667    3361.5006     5342.384    6199.6233    6671.1961   -2731.2446    1035.6451    767.56257    291.04675 
   36000        36000    287.55842    92391.171    6287.0569   0.96344716    6.1794358    3219.6611    6188.1022    6476.2875    6196.7809   -1941.5005   -152.56534    693.84212    287.55842 
   37000        37000     299.5726    92391.171    6019.5004   0.96344716    41.567424    3389.3083    5740.1056    7108.8732    5209.5224   -1521.9877   -490.09526    856.24934     299.5726 
   38000        38000    288.14367    92391.171    4213.9488   0.96344716    10.060553    3230.0825    4856.8268    4959.2891    2825.7304   -2059.8717    351.02674    2136.8662    288.14367 
   39000        39000    291.92657    92391.171    5603.0178   0.96344716   -6.2773825    3256.0187    6276.8527    6516.8323    4015.3685   -833.44549    1645.8701   -43.595231    291.92657 
   40000        40000    288.64104    92391.171    5390.6818   0.96344716    106.66216    3332.2422     4647.693    5857.4699    5666.8824   -319.81568   -94.588265   -373.74255    288.64104 
   41000        41000    289.89946    92391.171    4956.0279   0.96344716   -67.620205    3172.0227    5023.9989    4190.9366    5653.1481   -1843.6178    -137.1919    133.10767    289.89946 
   42000        42000    291.56106    92391.171    5905.4641   0.96344716     27.97848    3286.1899    5968.9941    6559.1415    5188.2567   -712.70504    136.20973    707.63648    291.56106 
   43000        43000    292.56532    92391.171     5611.599   0.96344716    115.85196    3385.2861    5603.7715    5647.3358    5583.6897   -1042.8319   -464.50402    877.20822    292.56532 
   44000        44000    294.51806    92391.171    5165.3257   0.96344716    11.161354    3302.4174    6414.1751    4237.7457    4844.0562   -599.74582    321.10077   -507.40793    294.51806 
   45000        45000    292.33156    92391.171    5890.5427   0.96344716    2.8439161    3269.6657    7748.1602    4983.0704    4940.3974   -1182.1342    804.16354   -132.89002    292.33156 
   46000        46000     297.4942    92391.171    5522.1738   0.96344716    10.702877    3335.2175    6100.5044     5785.088    4680.9289   -1358.2458   -561.07672   -471.20024     297.4942 
   47000        47000     292.2359    92391.171    5999.3248   0.96344716    26.939894    3292.6926    5346.6417     7456.325    5195.0078   -1948.2373   -1193.1739   -427.01626     292.2359 
   48000        48000     296.4777    92391.171    5604.3239   0.96344716    48.523064    3361.6782    5505.1979    6413.4416    4894.3321    -612.7288   -1672.5487   -802.88928     296.4777 
   49000        49000    296.96675    92391.171    5230.1826   0.96344716    39.573513    3358.1938    5217.0293    5381.7449    5091.7736   -331.55812   -725.12825    242.41116    296.96675 
   50000        50000    287.38482    92391.171    5411.4877   0.96344716    87.931462    3299.4732    6343.6938    5480.2752    4410.4942    480.82029    869.75061   -271.91634    287.38482 
   51000        51000    292.09149    92391.171    5897.7081   0.96344716    131.78746    3395.9265    5697.7784    5629.4586    6365.8874   -365.00686     711.5375    589.18274    292.09149 
   52000        52000    296.14623    92391.171    5233.2455   0.96344716    59.922809    3369.3737    3814.7422    6523.3091    5361.6854   -2121.7733    132.32079     923.8736    296.14623 
   53000        53000    293.01002    92391.171    6022.4594   0.96344716     67.98551    3342.3891     4182.209    7065.7477    6819.4215    -2279.063    414.02599     324.6233    293.01002 
   54000        54000      299.019    92391.171    6148.8597   0.96344716    89.354066    3430.9084    5406.2836    6459.3012    6580.9942   -2093.5405    1099.0862    -102.4779      299.019 
   55000        55000     292.4458    92391.171    5501.1998   0.96344716    120.77944    3388.8779    5073.2137    5153.0329    6277.3529   -2008.3315   -731.49296      156.769     292.4458 
   56000        56000      291.028    92391.171    5236.2794   0.96344716    68.035967    3320.2904    4934.6208    5289.5093    5484.7082   -799.93606    411.41508   -677.16461      291.028 
   57000        57000    289.16456    92391.171    4716.1632   0.96344716    191.86405    3423.2944    4855.1311    3594.1035    5699.2551   -1340.1311    1502.2877    783.31051    289.16456 
   58000        58000    283.75324    92391.171     5457.088   0.96344716    161.77373    3332.7324    5939.3539    5937.5901    4494.3201   -1071.0199    397.62111    348.06521    283.75324 
   59000        59000    288.31584    92391.171     6037.215   0.96344716    121.28067    3343.2266     6316.498     7377.986    4417.1609   -1498.1109    611.61152   -327.21356    288.31584 
   60000        60000    294.34143    92391.171     5187.557   0.96344716     130.5511    3419.8333    4497.8284     6226.683    4838.1595   -931.98489    593.42893    -333.5337    294.34143 
   61000        61000    301.20581    92391.171    5596.6254   0.96344716    173.41281    3539.4049    5257.8276    5371.7218    6160.3269    -825.1617    552.88102    67.056787    301.20581 
   62000        62000    300.05827    92391.171    4037.0058   0.96344716    93.818522    3446.9867    4881.9868     2449.097    4779.9335   -1049.7761   -466.41646    756.40971    300.05827 
   63000        63000     287.2496    92391.171    4860.1106   0.96344716    158.16512    3368.1957    4534.2637    4671.2847    5374.7833   -174.28445   -920.85142    104.23707     287.2496 
   64000        64000    294.39761    92391.171    5164.8088   0.96344716     84.46439    3374.3744    5307.9472    5738.1049    4448.3742   -805.42657   -204.88317   -187.65781    294.39761 
   65000        65000    296.61817    92391.171    5471.3879   0.96344716    155.69393    3470.4188    4384.9519    6387.1067     5642.105   -8.0194347    253.24576    538.09235    296.61817 
   66000        66000     286.7629    92391.171    5606.5462   0.96344716    78.043522    3282.6353    4464.1509    6347.0975    6008.3902   -3.2302581    1293.8785    230.54844     286.7629 
   67000        67000    295.59201    92391.171    4912.3204   0.96344716    182.05469    3485.3122    3514.6845     5719.993    5502.2836   -1224.7696    664.47103   -306.47911    295.59201 
   68000        68000    284.77853    92391.171    4628.9788   0.96344716    31.150278    3213.5665    4694.3862    5398.2004    3794.3497   -2485.0444    816.78591   -280.30926    284.77853 
   69000        69000    298.11155    92391.171    5985.7095   0.96344716    153.41614    3484.8297    6520.6813    5863.6916    5572.7555    737.82465    560.41172    -470.0301    298.11155 
   70000        70000    292.55786    92391.171    5934.1367   0.96344716    105.08128     3374.432    7731.7522    4558.2887    5512.3691   -164.42284    498.71878    305.85883    292.55786 
   71000        71000    293.19042    92391.171    4650.7517   0.96344716    97.638963    3374.0585    4621.3193    3753.0796    5577.8561    -1202.809     219.7898   -67.333377    293.19042 
   72000        72000    286.10997    92391.171    5716.6183   0.96344716    14.395964    3211.6911    5944.7221    5355.2475    5849.8854   -236.84044    428.48545    282.33988    286.10997 
   73000        73000    297.03112    92391.171    5601.5735   0.96344716    116.95393    3436.2936    5466.6208    6405.9252    4932.1743   -1847.3563    328.28161    155.71158    297.03112 
   74000        74000    287.66596    92391.171     5591.878   0.96344716    92.563648    3307.2471    5364.4958    5859.6881      5551.45   -1094.5487    1012.1059   -155.34108    287.66596 
   75000        75000    297.36381    92391.171    5871.8408   0.96344716    104.86655     3427.924    5915.3946    6972.2796    4727.8482   -1511.9863   -266.42626    203.08324    297.36381 
   76000        76000    292.04919    92391.171     4840.071   0.96344716    94.564464    3358.2308    4857.1902    5592.0271    4070.9956   -1961.1428   -248.53097   -1499.9149    292.04919 
   77000        77000    293.70142    92391.171    5829.3435   0.96344716    127.24317    3409.3732    5744.6264    5970.9714    5772.4327   -897.13134    400.79253   -729.14891    293.70142 
   78000        78000    295.17936    92391.171    4990.9592   0.96344716    112.06019    3410.7063    4205.8232    5120.2242    5646.8301    -1708.962    530.24239      129.485    295.17936 
   79000        79000    290.07946    92391.171    5705.6143   0.96344716    127.31622    3368.9707    5942.7206    5822.2281    5351.8943   -1231.6305     511.9234   -704.53445    290.07946 
   80000        80000    296.67755    92391.171     5894.776   0.96344716    181.23987    3496.6284    6693.6332    4910.2476    6080.4471   -951.18205    810.42711   -899.98704    296.67755 
   81000        81000    288.02026    92391.171    5430.5246   0.96344716    168.08814    3386.7309    6641.1217    4598.9647    5051.4874   -1665.2098   -325.24843   -497.36379    288.02026 
   82000        82000    291.95553    92391.171    5379.5983   0.96344716    208.79977    3471.4194    5241.6016    5297.8201    5599.3731   -943.68126    673.04896   -420.59967    291.95553 
   83000        83000    294.61498    92391.171    5257.2485   0.96344716     186.1434    3478.4826     5131.903    4758.5233    5881.3191   -1078.8241    61.426291   -74.730391    294.61498 
   84000        84000    293.94219    92391.171    6128.2026   0.96344716    150.57766    3435.3984    6652.2198    5735.6461    5996.7418   -2296.0741    129.83214   -16.377375    293.94219 
   85000        85000    295.29038    92391.171    6475.5974   0.96344716    195.79166    3495.6784    7902.9641    5701.3208    5822.5073   -2155.1782    586.35503    770.69687    295.29038 
   86000        86000    288.78624    92391.171    5781.4184   0.96344716    96.355129    3323.5578    5008.0174    6458.6538     5877.584   -382.21285   -252.39964   -170.75799    288.78624 
   87000        87000    292.61174    92391.171    5270.0973   0.96344716    133.87922    3403.8321    4577.5463    6582.6169    4650.1285   -990.15961    436.73447    404.32111    292.61174 
   88000        88000    298.21555    92391.171    5847.6799   0.96344716    163.87032    3496.4461    5843.6907    5583.0101    6116.3389   -2506.2029    267.18472    587.54878    298.21555 
   89000        89000    294.33744    92391.171    5526.2537   0.96344716    124.47759    3413.7152    5064.9369     6094.599     5419.225   -1667.5269   -373.55941    16.209879    294.33744 
   90000        90000    295.18834    92391.171    3844.2801   0.96344716    87.495131    3386.2416    4633.4369    3590.5692    3308.8343   -1787.7576     -403.905    137.35527    295.18834 
   91000        91000    286.60455    92391.171    4791.8756   0.96344716    72.511702    3275.3338    5176.3228    5074.1456    4125.1585   -765.05034    -167.8459    282.55822    286.60455 
   92000        92000    289.92246    92391.171    4394.7296   0.96344716    164.73436    3404.6343    3769.1172    4413.0997    5001.9721   -1859.0747   -95.874533    1359.4326    289.92246 
   93000        93000    287.86592    92391.171    5707.8572   0.96344716      118.015    3334.9331    4627.4251     7314.479    5181.6676   -1640.8322    1281.0296   -320.03178    287.86592 
   94000        94000    292.52024    92391.171    4992.2813   0.96344716    147.59895    3416.5292    4397.5759    6107.6469    4471.6213   -1655.5788    54.389751     352.3496    292.52024 
   95000        95000    290.43655    92391.171      5715.57   0.96344716    146.19143    3391.8364    4982.3488    6450.0513    5714.3098   -1346.4028    172.03122   -975.62323    290.43655 
   96000        96000    291.52923    92391.171    5539.8983   0.96344716    12.562708    3270.4185     4994.919    6043.0499    5581.7261    230.27646    277.52056    1081.9817    291.52923 
   97000        97000    290.03201    92391.171    6165.3863   0.96344716    103.88293    3345.0071    6242.8605    5104.7343    7148.5642   -1150.9128    625.11152   -612.44667    290.03201 
   98000        98000    295.28653    92391.171    4558.9603   0.96344716    104.34238    3404.1862    5128.0209    4263.4631    4285.3969   -974.11959    390.81253   -173.71207    295.28653 
   99000        99000    294.18378    92391.171    5712.5906   0.96344716    122.20313    3409.7235    5306.8112    6094.4802    5736.4804   -578.24528   -662.10439    425.65769    294.18378 
  100000       100000    286.52338    92391.171    7233.2957   0.96344716    123.42522    3325.3403    6958.0214    7396.1927     7345.673   -1214.9575   -272.00373   -227.36652    286.52338 
  101000       101000     294.1473    92391.171    5213.3491   0.96344716    109.45225    3396.5651    5018.8778    4927.0067    5694.1628   -1143.8226    413.65575    1107.8684     294.1473 
  102000       102000     286.3439    92391.171    5144.8291   0.96344716     123.2034    3323.1128    4090.9563    4994.6463    6348.8847   -1185.3042   -186.21013    973.61664     286.3439 
  103000       103000    301.53196    92391.171    5032.8874   0.96344716    95.409876    3465.0466    5444.5608    5332.2582    4321.8432   -2496.6302    135.90417   -213.22399    301.53196 
  104000       104000    285.91736    92391.171    6308.5487   0.96344716    205.74434    3400.8871    5952.6457    6327.5608    6645.4396   -1808.6518     91.27308    210.80309    285.91736 
  105000       105000    294.30924    92391.171    5468.0717   0.96344716    106.84673    3395.7692    5176.1622     5856.499     5371.554   -1053.8369     210.0913   -557.96332    294.30924 
  106000       106000    286.30791    92391.171    5395.5128   0.96344716     120.6156    3320.1227    3576.0491    6332.0769    6278.4124   -980.70503     92.09142    502.89694    286.30791 
  107000       107000    293.09513    92391.171    4825.1426   0.96344716    264.02257    3539.3773    5198.5593    4631.6874     4645.181   -1732.9696   -23.510409   -26.293619    293.09513 
  108000       108000    286.47909    92391.171    4593.7878   0.96344716     123.2414    3324.6615     4933.108    4961.8794    3886.3759   -1288.6831   -1175.1323     30.74935    286.47909 
  109000       109000    292.90517    92391.171    4359.4847   0.96344716     192.0493    3465.2812     3940.201     5166.504    3971.7493   -925.32837    231.08938   -728.99646    292.90517 
  110000       110000    290.71998    92391.171    5633.3989   0.96344716    115.50037    3364.3127    5525.9691    6064.1878    5310.0397   -322.01792   -825.47896     423.7365    290.71998 
  111000       111000    294.06496    92391.171    5274.7255   0.96344716    212.35451    3498.5471    4850.6933    5913.7471    5059.7361   -1024.5649   -1068.5508     1609.997    294.06496 
  112000       112000    292.35775    92391.171    4803.4769   0.96344716    122.25562    3389.3701    3849.7532    4670.0465     5890.631   -1891.3188   -230.26881     878.4073    292.35775 
  113000       113000    297.47056    92391.171    7096.8441   0.96344716    148.43535    3472.6858    7040.7519    6981.4567    7268.3236    -478.0482   -280.81062    532.94419    297.47056 
  114000       114000    295.18006    92391.171    5695.8255   0.96344716    223.37281    3522.0268    5689.8972    6526.5589    4871.0203   -176.26459   -800.31367    133.00461    295.18006 
  115000       115000    283.89853    92391.171    6311.5528   0.96344716    104.38503    3276.9673    6636.9274    6465.8842     5831.847   -387.48165   -939.77786     656.6399    283.89853 
  116000       116000    297.36974    92391.171    5112.2775   0.96344716    184.21254    3507.3363    4307.8831    5923.1427    5105.8067   -1649.2993   -585.92545    980.11671    297.36974 
  117000       117000    280.52417    92391.171    4885.8371   0.96344716    165.87961    3300.7531    5185.6331    5624.2874    3847.5907   -1853.3689   -429.23773   -248.72277    280.52417 
  118000       118000    295.03525    92391.171    6181.7419   0.96344716    175.97287    3473.0086    6278.7465    6296.2118    5970.2672   -1205.6569    1098.4757    180.39834    295.03525 
  119000       119000    297.37135    92391.171    4603.7902   0.96344716    146.06613    3469.2079    3893.5167    4774.9421    5142.9116   -529.93105    351.82898      578.532    297.37135 
  120000       120000    284.72424    92391.171    4648.9013   0.96344716    208.79342     3390.603    3897.1505    5347.7277    4701.8257   -2178.6706   -498.08974   -225.31365    284.72424 
  121000       121000    291.20919    92391.171    5683.6602   0.96344716    91.959453    3346.2387    5933.4359     5469.269    5648.2757   -1657.1071   -709.16555   -299.92256    291.20919 
  122000       122000    292.28153    92391.171    4625.0666   0.96344716    189.77516    3456.0379    4988.7011    3876.6152    5009.8837   -2139.2437    -152.5245    234.15576    292.28153 
  123000       123000     290.8392    92391.171    4744.4211   0.96344716    142.20972    3392.3544    3535.2938    4202.1662    6495.8032   -476.31127   -779.34134     1176.143     290.8392 
  124000       124000    292.94427    92391.171    5883.5286   0.96344716    98.202743    3371.8717      6028.55    5714.5262    5907.5096   -1300.3921    1336.5589    388.84619    292.94427 
  125000       125000      295.523    92391.171    4493.5768   0.96344716    136.56698    3439.0533    4023.9661    4753.1021    4703.6622   -930.17574    -302.1652   -586.73168      295.523 
  126000       126000    296.42515    92391.171    4382.5189   0.96344716    211.64243    3524.2103    4249.3032    4741.6779    4156.5757   -960.07158    280.86488    -46.70088    296.42515 
  127000       127000     293.8689    92391.171    4096.6489   0.96344716    99.902514    3383.9042    3767.4579    4205.0135    4317.4752   -1677.7746   -1295.3295    331.32261     293.8689 
  128000       128000    294.91511    92391.171    4770.8822   0.96344716    130.84357    3426.5367    4455.7253    6337.5041    3519.4173   -1293.1961   -299.19189   -802.75647    294.91511 
  129000       129000    290.68592    92391.171    6757.1548   0.96344716    171.30951    3419.7412    5391.9294    7634.3468    7245.1883   -1096.1391    460.15846    477.95329    290.68592 
  130000       130000    293.39266    92391.171    5624.9211   0.96344716    141.65927     3420.339    6008.9565    4200.2449    6665.5618   -510.54261   -293.31366   -699.65167    293.39266 
  131000       131000    296.05682    92391.171    4643.6027   0.96344716    255.54103    3563.9928    6638.7354    4536.5801    2755.4927   -1148.4657    697.69412    144.00666    296.05682 
  132000       132000    293.20614    92391.171    5408.5073   0.96344716    136.52276    3413.1181    5126.5306     5587.245    5511.7463   -1229.5812    -94.79017    686.61907    293.20614 
  133000       133000    295.50275    92391.171    5911.8908   0.96344716     205.9174    3508.1775    5350.8905     5629.859    6754.9229    -2470.214    1428.2952    163.74079    295.50275 
  134000       134000    293.52994    92391.171     5677.337   0.96344716    178.30775    3458.5215    5647.0194    5992.1503    5392.8413   -1336.2628    539.94906    254.54549    293.52994 
  135000       135000    291.20693    92391.171    6258.1379   0.96344716    161.92759    3416.1816    6519.9225    6624.2125    5630.2787   -1757.6162   -269.91802    147.86492    291.20693 
  136000       136000    294.03373    92391.171    4892.9465   0.96344716    264.27978    3550.1235    4174.5468    5971.3994    4532.8931   -1611.8167    105.21516    65.339896    294.03373 
  137000       137000    290.14735    92391.171    3605.0863   0.96344716    132.36459    3374.7777    3692.6583    3863.2961    3259.3046   -1848.0825    342.34483   -934.07654    290.14735 
  138000       138000    295.68535    92391.171    3473.0657   0.96344716     195.8285    3500.1291     4202.465    2412.1816    3804.5504   -848.67443    373.93826   -763.70049    295.68535 
  139000       139000    293.21854    92391.171    4850.9515   0.96344716    233.89393    3510.6277    4794.1176    5671.3932    4087.3436     -1939.53    468.10939   -506.63724    293.21854 
  140000       140000    290.27316    92391.171    4865.5323   0.96344716    161.20594    3405.0251    5172.3878    5415.5899     4008.619   -1356.5089    -106.2516   -871.91223    290.27316 
  141000       141000     289.4237    92391.171    4873.7918   0.96344716    255.61823    3489.9445     5004.065    5383.7522    4233.5584   -1622.1825   -966.68536   -662.04928     289.4237 
  142000       142000    286.42301    92391.171     4849.224   0.96344716    192.27295    3393.0664    3989.3002     5513.844    5044.5276   -3300.6621   -42.428329    528.57321    286.42301 
  143000       143000    297.98825    92391.171     5288.156   0.96344716    221.37689    3551.4125    5029.6912    4836.3274    5998.4493   -925.25418    1006.8493    -89.48768    297.98825 
  144000       144000    289.99577    92391.171    4865.3586   0.96344716    100.58381    3341.3031    5021.9745     5675.277    3898.8244   -665.87335    213.02889    1011.9508    289.99577 
  145000       145000    293.18767    92391.171    6409.6806   0.96344716    240.45066    3516.8395     4316.726    7889.0855    7023.2302   -1575.2936     -721.795    2277.3244    293.18767 
  146000       146000     288.0949    92391.171    4906.3126   0.96344716    177.65947    3397.1364    5019.4541    4745.7355    4953.7483   -1532.4982   -90.589194    44.086466     288.0949 
  147000       147000    294.11535    92391.171    5168.6895   0.96344716    226.22533     3512.981    4572.4964    5692.4043    5241.1679   -1716.7164   -500.43391    21.273976    294.11535 
  148000       148000    288.96929    92391.171      5846.15   0.96344716     169.4317    3398.6799    7393.5886    5565.0475    4579.8141   -1791.2536   -157.32169    405.72776    288.96929 
  149000       149000    290.93829    92391.171    3818.3012   0.96344716    201.96774    3453.2196    2488.7794    5693.5964    3272.5279   -1120.1206    427.14336   -491.00368    290.93829 
  150000       150000    288.17041    92391.171    4995.0123   0.96344716    263.86991    3484.1906    4103.3743    5518.7593    5362.9034   -1382.0363    -246.3807     1006.285    288.17041 
  151000       151000    295.05212    92391.171    4765.3264   0.96344716    216.09976     3513.324    4846.4847    4461.6574    4987.8369    -1206.222    216.22711   -448.21607    295.05212 
  152000       152000    291.77277    92391.171    6012.3185   0.96344716    118.02048    3378.5977    5150.9955    6785.9893    6099.9707   -376.41286    119.13182    453.41618    291.77277 
  153000       153000    293.65662    92391.171    5222.9796   0.96344716    216.07862    3497.7081    5269.9538    6471.7059    3927.2791   -1194.4154   -54.574068    104.44774    293.65662 
  154000       154000    298.30443    92391.171    4330.8119   0.96344716     127.9311    3461.5001    4130.4301    5222.9106     3639.095   -2308.2563    223.82446     619.9387    298.30443 
  155000       155000    296.32935    92391.171    4698.2066   0.96344716    177.38423    3488.8816    3169.9538    5372.6431    5552.0229   -956.38975   -216.98654    341.85572    296.32935 
  156000       156000    291.03071    92391.171    6178.8653   0.96344716    133.60535    3385.8901    6455.4522    6604.2993    5476.8445   -729.57349   -1347.6685     1059.234    291.03071 
  157000       157000     295.8616    92391.171     4381.553   0.96344716    273.28707    3579.5573    4845.4486    3772.5286    4526.6817   -1866.9681   -25.468579   -97.580235     295.8616 
  158000       158000    287.18298    92391.171    5988.3143   0.96344716    157.61632    3366.9025    5659.6445    6448.0967    5857.2018   -186.87043   -621.48934   -656.49249    287.18298 
  159000       159000    293.46912    92391.171      4180.43   0.96344716    213.21819    3492.7523    4000.0038    4644.1054    3897.1808   -1663.2224    766.81472    325.72497    293.46912 
  160000       160000    292.88316    92391.171    4771.8523   0.96344716    184.34493    3457.3309    4385.4968    4695.8516    5234.2085   -2150.9717    32.013573    6.9584697    292.88316 
  161000       161000      292.366    92391.171    4911.1351   0.96344716    259.85311    3527.0598    5320.4223    5469.5497    3943.4333   -1913.6621    421.83495   -698.78528      292.366 
  162000       162000    290.34718    92391.171    6105.2216   0.96344716    224.68058    3469.3269    4255.9896    7621.0988    6438.5764   -1896.8929    1134.1666    182.53453    290.34718 
  163000       163000    294.61575    92391.171    6301.2069   0.96344716    170.85367    3463.2014    5747.3541    6148.9236    7007.3431   -1900.7707    -535.1856    147.21098    294.61575 
  164000       164000    290.18938    92391.171    6213.7093   0.96344716    242.22872    3485.1115    6168.6095    6407.1922    6065.3261   -1296.1695    -579.5858     891.4619    290.18938 
  165000       165000    292.45492    92391.171     5719.201   0.96344716    160.45476    3428.6551    4600.4344    6178.4736     6378.695   -492.22103    94.230602   -1394.5071    292.45492 
  166000       166000    296.55882    92391.171    5800.0132   0.96344716    250.75491    3564.8166    6039.2007    6106.3094    5254.5294   -995.70642    73.690132   -629.22316    296.55882 
  167000       167000    288.29468    92391.171    5727.5092   0.96344716    203.72134    3425.4308    3815.1594    6627.0634    6740.3049   -2414.8918   -499.35177   -755.86603    288.29468 
  168000       168000    289.15946    92391.171    4243.4407   0.96344716    210.68832    3442.0618    2735.3364     4560.559    5434.4266    -1029.709   -213.96993     27.74885    289.15946 
  169000       169000    295.95554    92391.171    4694.5832   0.96344716    222.38896    3529.7089    3895.1615    5777.2032    4411.3849   -479.77264     262.6246   -426.05988    295.95554 
  170000       170000    284.08751    92391.171    3872.9475   0.96344716    212.34667    3387.0407    3888.9826    3664.4628    4065.3971   -1000.4995   -284.31057   -471.75183    284.08751 
  171000       171000    295.23336    92391.171    4331.9822   0.96344716    221.90078    3521.1504    4885.5411    4235.7981    3874.6074   -1557.6122    672.38369    1166.2365    295.23336 
  172000       172000    292.39876    92391.171    5043.9544   0.96344716    204.50085    3472.0737    5260.1625    3661.1985    6210.5022   -1606.8323     917.2297   -644.67172    292.39876 
  173000       173000    293.01581    92391.171      4391.13   0.96344716    230.72858    3505.1969    3864.1717    5037.1012    4272.1169    -34.30972   -344.40844    66.550213    293.01581 
  174000       174000    297.13895    92391.171    5605.9648   0.96344716    210.49988    3531.0446    5731.5893    3881.1216    7205.1835   -1803.3889   -337.22394   -359.97754    297.13895 
  175000       175000    290.56537    92391.171    5839.6626   0.96344716    185.52637    3432.6109    4738.3135    4535.3167    8245.3576    -2100.541   -564.75199   -221.74227    290.56537 
  176000       176000    291.21822    92391.171    4748.1256   0.96344716    205.90044    3460.2806    4829.2973    4865.1166    4549.9629   -1126.1321    674.71426   -622.49479    291.21822 
  177000       177000    292.14593    92391.171     5379.542   0.96344716    234.63725    3499.3846    4715.1206    7261.6489    4161.8566   -1052.8957    141.57896   -197.43963    292.14593 
  178000       178000     294.5604    92391.171    6310.5534   0.96344716    181.82426    3473.5534    6389.2401    6378.9589    6163.4614   -1921.7949    129.56942   -112.44835     294.5604 
  179000       179000    287.28147    92391.171    5356.6457   0.96344716    263.95529    3474.3421    3605.8339    5895.2203     6568.883   -569.17892   -805.88685   -1877.2371    287.28147 
  180000       180000    287.67581    92391.171    4268.2788   0.96344716    156.92228    3371.7158    3793.5287    4877.5901    4133.7177   -1733.7129    229.80308    -295.6866    287.67581 
  181000       181000    292.51502    92391.171    5562.4052   0.96344716    256.00868    3524.8807    5785.5498    5613.6413    5288.0243   -1134.1851   -101.44673   -1132.6203    292.51502 
  182000       182000    286.20256    92391.171    5976.6983   0.96344716    185.02825    3383.3582    6188.4078    5556.2777    6185.4094   -860.96877   -712.83293    266.26116    286.20256 
  183000       183000    290.98403    92391.171    5675.4236   0.96344716    257.96195     3509.725     4882.704    5561.3098    6582.2569   -1254.5076    341.41677     916.4498    290.98403 
  184000       184000    286.49385    92391.171    5279.8593   0.96344716    178.39802     3379.983    4495.9701    5495.8985    5847.7093   -1185.9578   -537.75644    340.26758    286.49385 
  185000       185000    296.23898    92391.171    4728.1305   0.96344716    290.39758     3600.885    4126.3366    6466.9711    3591.0837   -1691.2009    455.49387    405.29009    296.23898 
  186000       186000    288.00374    92391.171    5856.8141   0.96344716    163.69423    3382.1524    5805.3453    5401.3496    6363.7474   -1061.7265    149.85251    233.26439    288.00374 
  187000       187000    299.66757    92391.171     5388.379   0.96344716     244.0601    3592.8622     4190.333    5037.0212    6937.7829   -1501.8416   -835.43539    388.18353    299.66757 
  188000       188000    285.42354    92391.171    6171.7161   0.96344716    170.10864     3359.733    6153.4215    6568.6257    5793.1009   -1296.1794   -768.37722    403.18303    285.42354 
  189000       189000    288.04556    92391.171    4784.6486   0.96344716    275.53971    3494.4652    3462.5855     5579.783    5311.5772   -985.90909    661.35629    216.20533    288.04556 
  190000       190000    298.68304    92391.171    4268.6004   0.96344716    189.39623    3527.1962    4325.7015    4384.1448    4095.9548    -809.4783   -23.403478   -4.8736876    298.68304 
  191000       191000    288.23363    92391.171    4931.8506   0.96344716    181.65647    3402.6837     4271.546    5726.8696    4797.1361   -1376.5031    234.27729    675.17053    288.23363 
  192000       192000     293.6897    92391.171    5439.3522   0.96344716    79.753921    3361.7531    3852.1906    6572.7122    5893.1538   -1154.1405    205.51671   -544.76616     293.6897 
  193000       193000    299.76584    92391.171    4343.3796   0.96344716    225.23073    3575.1311    4545.6675     4280.652    4203.8194   -599.85708   -693.67479   -444.76379    299.76584 
  194000       194000     292.5474    92391.171    5028.4002   0.96344716    113.22708    3382.4609    5680.8021    4576.0989    4828.2996   -1092.4819   -8.2785647    458.00204     292.5474 
  195000       195000    295.21482    92391.171     5382.397   0.96344716    269.93816    3568.9805    4037.0376    6432.3024    5677.8511   -1657.4566    90.975213    1212.2634    295.21482 
  196000       196000    286.11643    92391.171    5277.8091   0.96344716    164.68207    3362.0495    3846.8446    5900.0286    6086.5539   -2032.7329    965.29012    228.51449    286.11643 
  197000       197000    295.78135    92391.171    4613.6455   0.96344716    221.54373    3526.9171    4412.4536    4989.1785    4439.3043   -1679.4939     278.6531    544.29501    295.78135 
  198000       198000     293.3704    92391.171    4967.6309   0.96344716    196.81704     3475.248    4847.5903    5617.6175    4437.6849    -934.6894    453.58242    328.86247     293.3704 
  199000       199000    295.49212    92391.171    5287.2511   0.96344716    223.11731    3525.2586    3371.6009    6130.0417    6360.1108    191.19594     48.97819    428.06475    295.49212 
  200000       200000    293.58036    92391.171    4933.2363   0.96344716    156.20942    3436.9866    2792.1891    5293.2751    6714.2446   -2062.2639   -31.617658   -436.22469    293.58036 
  201000       201000    300.21172    92391.171    4502.9934   0.96344716    140.13732    3495.0204    4211.4211    5561.6129    3735.9461   -471.60954    1134.4594   -401.17473    300.21172 
  202000       202000    286.73051    92391.171    5676.5397   0.96344716    193.41824     3397.648     5696.414    7415.4494    3917.7558   -1371.6666   -280.95457   -44.910988    286.73051 
  203000       203000    287.00063    92391.171     5391.035   0.96344716    253.67351    3460.9219    5132.3614    5364.1952    5676.5484   -1059.7636   -275.57545   -165.73617    287.00063 
  204000       204000    291.68079    92391.171    4744.8291   0.96344716    105.94337    3365.4927     4846.943    5273.2736    4114.2708   -1620.8832    325.14535   -319.76603    291.68079 
  205000       205000     299.7201    92391.171    5490.0399   0.96344716    185.42468    3534.8138    4560.4808    6303.5955    5606.0434   -384.38565   -44.848548    242.91937     299.7201 
  206000       206000    285.52189    92391.171    6283.5979   0.96344716     130.1484    3320.8717    5758.9904    7669.4666    5422.3368   -1209.3731   -491.33574    94.223104    285.52189 
  207000       207000    285.29612    92391.171    4327.5994   0.96344716    128.18183    3316.3822     4982.967    3626.0843    4373.7468   -629.60466    214.03329    199.02439    285.29612 
  208000       208000    303.04879    92391.171     4921.688   0.96344716    88.008572    3474.5961    3819.6715    5523.1838    5422.2087   -1099.5557    994.38149   -883.09117    303.04879 
  209000       209000    288.31767    92391.171    5099.8163   0.96344716    129.48864     3351.455    5049.0977    5434.8834    4815.4677    107.96376    372.13805   -653.56971    288.31767 
  210000       210000    284.52767    92391.171    3833.0025   0.96344716    123.50974    3303.1226     3467.297    3321.8525    4709.8579   -303.30438   -125.50158   -698.73714    284.52767 
  211000       211000    301.17421    92391.171    6440.2821   0.96344716    230.77547    3596.4144    7629.2037    5703.1232    5988.5194   -1614.5278   -1050.3717   -233.28086    301.17421 
  212000       212000    290.54672    92391.171    3950.5952   0.96344716    19.361466    3266.2376    2377.2696    4577.9932    4896.5229    -2005.003    238.27064    230.17998    290.54672 
  213000       213000    296.54706    92391.171    4551.0827   0.96344716    187.34555    3501.2758    5206.0218    5050.0501    3397.1761   -1643.0284    782.81554   -142.20031    296.54706 
  214000       214000    290.97874    92391.171    4436.7212   0.96344716    161.18852    3412.8924    4171.5295    4493.5248    4645.1093   -1584.5397    -81.73241    279.55137    290.97874 
  215000       215000    294.69759    92391.171    4909.3823   0.96344716    213.56243    3506.8248    5724.3535    5275.2449    3728.5486   -1852.3961    611.67402   -655.69084    294.69759 
  216000       216000    291.24779    92391.171    5216.8351   0.96344716    140.74465    3395.4553    6140.0448    4310.6886     5199.772   -97.573282    219.22689   -650.90012    291.24779 
  217000       217000    294.49028    92391.171     6832.867   0.96344716    122.37103    3413.3167    7311.5481     6876.659    6310.3939   -478.17709   -486.94328   -640.56394    294.49028 
  218000       218000    290.38182    92391.171    5594.0398   0.96344716    222.16876    3467.2021    6566.8552    4910.9588    5304.3055    -1509.538   -415.07354   -1118.3978    290.38182 
  219000       219000     293.6925    92391.171    4763.9141   0.96344716    117.14549    3399.1759    3428.9126    3681.1363    7181.6934    -508.8281     663.2945    200.30974     293.6925 
  220000       220000    293.91035    92391.171    3943.5954   0.96344716    115.86588    3400.3308    3759.8003    4345.1383    3725.8476   -1651.9549   -444.20877    282.44281    293.91035 
  221000       221000    293.91854    92391.171    4735.4188   0.96344716    201.43502    3485.9914    4409.2262    4667.9365    5129.0936   -1492.4155   -797.30493   -70.373869    293.91854 
  222000       222000    285.10712    92391.171    5926.4522   0.96344716    128.99005    3315.0784    6363.3756    5765.2928    5650.6882   -1304.7973   -1337.7151    533.05488    285.10712 
  223000       223000     299.1065    92391.171    5006.0101   0.96344716    299.79779    3642.3299    4045.2232    5437.2539    5535.5531    -2483.364   -58.971468    40.907581     299.1065 
  224000       224000    296.29961    92391.171    4491.8653   0.96344716    79.173754    3390.3388     3618.396     4377.593     5479.607   -660.87836   -860.60099   -688.76145    296.29961 
  225000       225000     290.6685    92391.171    4542.3693   0.96344716    126.27375    3374.5107    2333.9225    6642.8388    4650.3465   -2222.5537    4.7709337     1336.017     290.6685 
  226000       226000    293.81227    92391.171    5094.4982   0.96344716    244.21146    3527.5803    3993.5292    6166.5667    5123.3988   -1221.2379   -395.26876   -1079.8042    293.81227 
  227000       227000    293.44582    92391.171    5981.8197   0.96344716    198.61429     3477.888     5079.877    6757.7636    6107.8185   -1137.9047   -554.57132   -106.63478    293.44582 
  228000       228000    293.43126    92391.171    5109.6161   0.96344716    198.76318    3477.8742    4555.1056    5183.9993    5589.7434    -1541.555   -27.762428     763.4929    293.43126 
  229000       229000    291.49449    92391.171    4808.8964   0.96344716    200.44387    3457.9113    4095.1014    5317.9273    5013.6605   -2258.5062   -1191.0273    1130.4159    291.49449 
  230000       230000    287.95034    92391.171    5114.9059   0.96344716    315.30579    3533.1673    3408.1902    6077.9677    5858.5599   -1831.9373    922.01002    250.98329    287.95034 
  231000       231000    292.05443    92391.171     4783.421   0.96344716    209.96538    3473.6902    5512.3315       4326.7    4511.2315   -1532.8881    75.866005    183.69668    292.05443 
  232000       232000    294.47763    92391.171    4807.0547   0.96344716      252.937    3543.7413    3830.1943    5478.7169    5112.2529   -1712.6611   -711.18595   -722.45492    294.47763 
  233000       233000    293.89581    92391.171    4578.1932   0.96344716     218.4201    3502.7225    3521.5978    3973.2787    6239.7032   -1515.1633    -322.7556   -705.25693    293.89581 
  234000       234000     293.7379    92391.171     6341.435   0.96344716    267.68032     3550.218    5856.6612    6521.9052    6645.7388   -1861.6822   -729.06063    520.86531     293.7379 
  235000       235000    290.59581    92391.171    5638.8687   0.96344716    156.18322     3403.608     5364.817    5728.8897    5822.8994   -1916.2845    601.93725   -55.702345    290.59581 
  236000       236000    292.52543    92391.171     5882.282   0.96344716    254.60695    3523.5953    4629.3657    6382.6201    6634.8601   -1375.7527    725.84155   -603.21489    292.52543 
  237000       237000    295.54433    92391.171    6327.9361   0.96344716    231.62806    3534.3528     7211.289    6809.1142    4963.4051   -1291.4601   -590.58317   -1135.7127    295.54433 
  238000       238000    293.11502    92391.171    6008.0291   0.96344716    186.85302      3462.43    6316.6513    5833.1962    5874.2399   -1446.0664    -82.92715    524.35153    293.11502 
  239000       239000    292.33322    92391.171    5004.4061   0.96344716     252.3777    3519.2181    4388.7276    4493.1367    6131.3538    84.550114    412.66294    1146.9264    292.33322 
  240000       240000    296.00149    92391.171    5658.0079   0.96344716    117.99306    3425.8265    5823.8077    6553.5778    4596.6383   -1349.4817   -1112.7217   -786.91503    296.00149 
  241000       241000    293.62035    92391.171    5685.1288   0.96344716    161.20331    3442.4274    4528.5584    6318.8293    6207.9987   -992.44861    51.178716    873.94347    293.62035 
  242000       242000    298.96378    92391.171    5735.4517   0.96344716    184.46777     3525.405    5590.9326    4744.9289    6870.4936    -1295.042    741.26799   -488.98406    298.96378 
  243000       243000    288.78386    92391.171    5355.1489   0.96344716    150.25904    3377.4351    5071.1287    5087.8037    5906.5144     -337.986     347.8482   -2007.5948    288.78386 
  244000       244000    290.71873    92391.171    4954.0474   0.96344716    173.47442    3422.2727    4128.3747    6353.0015     4380.766   -1326.6972   -503.14502    216.42963    290.71873 
  245000       245000    295.44081    92391.171    5231.8228   0.96344716    182.36612     3483.934    4446.2048    5422.3828    5826.8807   -532.18562   -472.95545    950.25706    295.44081 
  246000       246000    286.72593    92391.171    5203.0933   0.96344716    109.95003    3314.1286     5409.085    5506.8277    4693.3673   -1207.2769   -589.69603   -629.25721    286.72593 
  247000       247000    298.80536    92391.171    5539.7816   0.96344716    258.64642    3597.8133    5400.2197    5538.2761     5680.849   -2456.7679   -113.06498   -619.96794    298.80536 
  248000       248000    288.38634    92391.171    5928.5983   0.96344716    191.39193    3414.1257    5727.0366    6360.1473     5698.611    139.97553    322.03141   -1333.0952    288.38634 
  249000       249000    292.21434    92391.171    6383.3103   0.96344716    124.76167    3390.2735    7505.8758    6277.8133    5366.2418   -1339.8955    921.08873    227.39177    292.21434 
  250000       250000    291.17331    92391.171    5686.7198   0.96344716    181.10944    3434.9877    5718.5212    6058.8286    5282.8097   -420.05972    261.27007    892.13876    291.17331 
  251000       251000    294.72744    92391.171    5939.6487   0.96344716    262.75708     3556.353    5574.6743     6338.823    5905.4487   -294.02618   -294.43917    15.819354    294.72744 
  252000       252000    288.38701    92391.171     4775.189   0.96344716    188.74772     3411.489    3268.3843     5930.942    5126.2406   -1384.4809   -651.00739   -491.60963    288.38701 
  253000       253000    295.33108    92391.171    5240.0776   0.96344716    232.74443     3533.086    5300.4176    5549.3919    4870.4232   -858.80139    23.141678    371.93922    295.33108 
  254000       254000    289.63203    92391.171    4818.8727   0.96344716    230.29765    3466.9521    4789.2443    5613.1088    4054.2649   -970.83363   -307.03789    1599.7633    289.63203 
  255000       255000    294.48167    92391.171     5856.256   0.96344716    229.35378    3520.2032    4775.9519    6475.7684    6317.0478   -681.40441   -154.32936   -255.37161    294.48167 
  256000       256000    297.22552    92391.171    3839.0579   0.96344716     202.1651    3523.6772     3473.949    3270.4073    4772.8175   -2018.9641   -371.67553   -801.99997    297.22552 
  257000       257000    292.82149    92391.171    5117.4621   0.96344716    100.52832    3372.8251    3878.1019    5744.0768    5730.2075   -869.19639   -543.71344    93.442877    292.82149 
  258000       258000    292.25414    92391.171    5617.3045   0.96344716    275.31074    3541.2674    4782.3351    6772.9926    5296.5858   -888.32592    1037.0051   -1239.2983    292.25414 
  259000       259000    290.17842    92391.171    3635.2436   0.96344716    150.05019    3392.8105    3263.7764    3649.7382    3992.2163   -386.35246    198.06243   -527.52166    290.17842 
  260000       260000    293.72141    92391.171    5799.9099   0.96344716    204.39619    3486.7497    5319.2486     5561.549     6518.932   -1084.0546   -97.829018    1340.0922    293.72141 
  261000       261000    287.31336    92391.171    4559.9241   0.96344716    113.20382     3323.947    4665.8661    3905.5586    5108.3475   -2331.1092    772.05797   -367.19145    287.31336 
  262000       262000     290.3719    92391.171    5276.8079   0.96344716    150.78174    3395.7043    4815.0108     6669.526    4345.8868   -259.65522   -171.85412   -1850.4924     290.3719 
  263000       263000    291.39645    92391.171      5613.68   0.96344716    227.94045    3484.3123    3692.8324     6305.754    6842.4536    -1309.618   -143.92005    562.14775    291.39645 
  264000       264000    295.49708    92391.171    5926.3503   0.96344716    211.51262    3513.7093    6240.0704    5117.7565    6421.2239   -1524.6078   -48.855137   -574.99563    295.49708 
  265000       265000    290.90705    92391.171    6098.9456   0.96344716    212.93431    3463.8371    6728.1345    6764.2978    4804.4044    -2291.669    113.28658   -1069.4851    290.90705 
  266000       266000    288.35051    92391.171    4846.7093   0.96344716    168.24521    3390.5785    2686.1175    4461.5339    7392.4764   -2137.6847    90.984796    557.63508    288.35051 
  267000       267000    299.03978    92391.171    4602.9358   0.96344716    200.90134    3542.6879     2639.539    6135.2044    5034.0642   -1557.1251   -903.05965    364.31075    299.03978 
  268000       268000    288.33202    92391.171    4489.3845   0.96344716    124.93155    3347.0583    3509.8686    5376.2744    4582.0105   -597.64482    62.885741    706.50507    288.33202 
  269000       269000    295.51288    92391.171    4682.3007   0.96344716    111.86809    3414.2413    4253.7254     6489.369    3303.8079   -619.41033   -67.258477    1470.0848    295.51288 
  270000       270000    293.79493    92391.171    5458.5273   0.96344716     205.0532    3488.2282    5457.1035    6275.2452    4643.2332   -1090.7236   -134.01662    523.07731    293.79493 
  271000       271000     290.4964    92391.171    5286.6898   0.96344716     103.4919    3349.8057    4471.8056    6113.6372    5274.6266   -405.76561    1241.4604   -654.24838     290.4964 
  272000       272000    294.16035    92391.171    5544.4998   0.96344716    167.81786    3455.0765    4960.7689    6423.0233    5249.7074    17.796539   -487.41861   -1284.0066    294.16035 
  273000       273000    302.78057    92391.171    4988.0958   0.96344716    157.37058    3540.9607    4779.4283    4484.2463    5700.6128   -43.326663    194.94917    319.03791    302.78057 
  274000       274000    287.59513    92391.171     5619.736   0.96344716    181.59949    3395.4914    5948.9562    3729.6629    7180.5887    -1420.041   -53.257068    721.42827    287.59513 
  275000       275000      296.311    92391.171    5422.0473   0.96344716    224.18147    3535.4737    4907.8258    5565.8339     5792.482    -1846.799   -906.63636   -533.40444      296.311 
  276000       276000    290.14981    92391.171    5575.2936   0.96344716    204.75949    3447.2001    4528.4169    6983.8138    5213.6502   -1421.2921    260.07257   -45.483415    290.14981 
  277000       277000    291.74922    92391.171    5134.0542   0.96344716    243.24894    3503.5631    3597.2562    5704.1801    6100.7263   -2104.4195   -80.866173    5.1397085    291.74922 
  278000       278000    285.20159    92391.171    4263.4644   0.96344716    110.19638    3297.3404    3872.0614    3909.2316    5009.1001   -1037.7044    593.66878    -447.0903    285.20159 
  279000       279000    301.11629    92391.171    4408.3475   0.96344716    212.92582    3577.9175    2838.4119    5366.9573    5019.6733    -1621.746    -245.3329   -71.735793    301.11629 
  280000       280000    285.88191    92391.171     4143.091   0.96344716    86.114259    3280.8608    3584.8737    4976.9458    3867.4536   -1309.6883    829.88039   -163.67647    285.88191 
  281000       281000    293.21933    92391.171    6390.2697   0.96344716    131.17095    3407.9137    6032.5721     6759.118     6379.119   -707.73581   -230.48747    126.89414    293.21933 
  282000       282000     292.5753    92391.171    5965.4859   0.96344716    203.90542    3473.4511    5882.1837    6000.6664    6013.6077   -1361.4373   -160.75311   -41.925277     292.5753 
  283000       283000      293.782    92391.171    4377.3022   0.96344716    153.71225    3436.7428    3484.4453     5699.918    3947.5433   -2454.9841   -284.79395   -432.85354      293.782 
  284000       284000    287.29041    92391.171     4640.308   0.96344716    126.16134     3336.648    5398.1241    4026.5313    4496.2686   -404.44957   -1078.7091    -708.1391    287.29041 
  285000       285000    291.60814    92391.171    4983.4481   0.96344716    187.70471    3446.4423    3679.0368    5079.9281    6191.3793   -1717.0672   -1184.3509    1155.3078    291.60814 
  286000       286000    285.33358    92391.171     5751.625   0.96344716    165.63285    3354.2518    6134.6826    6801.0141    4319.1781   -560.12293   -777.22086    352.23838    285.33358 
  287000       287000    289.29925    92391.171     5227.678   0.96344716    154.41442      3387.35    5247.0338    4659.0807    5776.9196   -2583.2337    70.291134   -93.357729    289.29925 
  288000       288000    292.35345    92391.171    5899.4247   0.96344716    240.14958     3507.216    4860.7082    7707.8757    5129.6902   -63.655193    42.982669   -1184.7306    292.35345 
  289000       289000    284.67244    92391.171    4451.7088   0.96344716    86.012361    3267.2431    4510.7607     4697.593    4146.7726   -951.79456   -1054.4125   -90.816935    284.67244 
  290000       290000    299.99398    92391.171    6021.3793   0.96344716     149.4697    3501.9195     6234.674    5482.8148    6346.6492   -912.93208    613.02575   -327.62626    299.99398 
  291000       291000    296.38766    92391.171    4675.5723   0.96344716     116.4346    3428.5836    3570.9459    3879.0399    6576.7311   -1262.9754    143.62724    156.71216    296.38766 
  292000       292000    286.52955    92391.171    3615.1701   0.96344716    191.05644    3393.0404    2380.0787     5062.609    3402.8226   -669.59032   -1224.7355    647.61161    286.52955 
  293000       293000    299.90067    92391.171     4074.233   0.96344716    162.58767    3513.9947    3294.6821    4362.3211    4565.6959   -1628.5239     380.7841    32.880672    299.90067 
  294000       294000    292.17465    92391.171    4796.1524   0.96344716    105.07409    3370.1425    4716.3378    5002.0512    4670.0681   -1742.2511    290.69376    790.92582    292.17465 
  295000       295000    303.10128    92391.171    4481.2291   0.96344716    144.56643    3531.7405    4727.2003    4005.7146    4710.7726   -1414.4028     77.71175   -397.41382    303.10128 
  296000       296000    289.60202    92391.171    6781.8564   0.96344716     127.5503    3363.8694    6693.6067    7329.0624    6322.9001   -1615.8182    889.98186   -662.84202    289.60202 
  297000       297000    302.44243    92391.171    4590.9024   0.96344716    117.78048    3497.5918    3654.7443    5054.1238     5063.839   -725.21536    136.25778    205.17149    302.44243 
  298000       298000    291.50331    92391.171    3780.3968   0.96344716      82.5739    3340.1399    1882.4639    4471.8432    4986.8832   -1820.7237    2.5467382    294.30599    291.50331 
  299000       299000    297.67038    92391.171    4916.2891   0.96344716    197.87468    3524.3581     4458.431    6315.5043    3974.9319    -853.2477   -1219.6784   -206.48123    297.67038 
  300000       300000    289.49781    92391.171    4367.4649   0.96344716    155.50681    3390.6613    4200.3882    5516.5989    3385.4076   -541.18799    589.56821   -1065.9127    289.49781 
  301000       301000    295.63257    92391.171     4986.758   0.96344716     83.82868    3387.5394    5045.2414    5000.6229    4914.4097    -855.0021    62.568308   -955.81819    295.63257 
  302000       302000    288.31135    92391.171    5155.7826   0.96344716     155.5311    3377.4269    5118.5455    4189.7216    6159.0808    30.848369   -400.96813    -672.7524    288.31135 
  303000       303000    293.58643    92391.171     5505.081   0.96344716    163.21536    3444.0605    3792.2721    6358.6922    6364.2788   -1828.4573   -1176.8927     -616.352    293.58643 
  304000       304000     301.8853    92391.171    6244.3932   0.96344716    167.75193    3541.3373    4810.4427    7220.6783    6702.0587   -1943.9627   -336.20804     48.67367     301.8853 
  305000       305000    287.56618    92391.171    5379.0714   0.96344716    143.51522    3357.0836    4993.0836    6164.6634    4979.4672   -925.64526   -658.88087   -226.73657    287.56618 
  306000       306000    293.23265    92391.171    5549.6069   0.96344716    201.95813    3478.8496    5611.1431    5694.0873    5343.5902   -1748.0434   -437.55395    1322.6847    293.23265 
  307000       307000    291.70407    92391.171    4612.8611   0.96344716    164.45852    3424.2681    2563.5373    5989.1548    5285.8913   -479.73317   -330.51314   -101.02083    291.70407 
  308000       308000    291.79589    92391.171    5898.4656   0.96344716    229.55243    3490.3881    6139.7144    5927.6148    5628.0675   -1828.9506   -96.095647    1360.6312    291.79589 
  309000       309000    293.93057    92391.171    6882.4331   0.96344716    238.74661    3523.4375    6554.0966    7423.2073    6669.9954   -1369.5303    610.36106   -939.86157    293.93057 
  310000       310000    295.42805    92391.171    4316.4328   0.96344716    166.11728    3467.5426    3766.0326      4324.05    4859.2159   -1182.5202   -912.56918   -1486.2611    295.42805 
  311000       311000     291.9475    92391.171     4181.734   0.96344716    108.28772    3370.8177    2880.4855    4598.0056    5066.7109   -1118.4609   -407.59563     -1479.91     291.9475 
  312000       312000    294.44528    92391.171    4473.2491   0.96344716    211.96681    3502.4096    4176.0603    4552.0148    4691.6721    -2154.293   -21.840274    823.72997    294.44528 
  313000       313000    288.92492    92391.171    4527.0894   0.96344716     124.3599    3353.1124    2792.7476    5287.8314    5500.6892   -781.52086   -480.40565    832.41015    288.92492 
  314000       314000    294.27441    92391.171    5225.1209   0.96344716    182.85972     3471.393    5159.9066    5531.3598    4984.0962   -753.74612   -370.92513    528.01884    294.27441 
  315000       315000    297.31144    92391.171    4515.2628   0.96344716    147.20468     3469.677    4407.5449    4947.2788    4190.9648   -1268.1834    74.645853   -416.63514    297.31144 
  316000       316000    296.36081    92391.171    5787.8685   0.96344716    232.46186    3544.3108    6369.6324    5107.1426    5886.8304   -613.49017   -304.59385     303.4245    296.36081 
  317000       317000    291.84967    92391.171    6222.3592   0.96344716    157.98874    3419.4254    5281.9423    6655.6322    6729.5031   -655.13507    110.63854    666.94948    291.84967 
  318000       318000    296.53868    92391.171    5583.7236   0.96344716    216.28668    3530.1233    5354.4471    5245.7907    6150.9331   -1827.4079    573.16832    1891.7526    296.53868 
  319000       319000     292.3957    92391.171    4953.0437   0.96344716    133.86422    3401.4028    3817.8725    5927.6104    5113.6484   -1898.8895    130.00981    632.50763     292.3957 
  320000       320000    291.46731    92391.171    5160.3092   0.96344716    189.39757    3446.5614     5098.751    5185.8629    5196.3138   -1183.1952   -407.70022   -654.30905    291.46731 
  321000       321000    291.13277    92391.171    5503.3533   0.96344716    156.40283    3409.8281    4568.8326    6083.5979    5857.6295   -1333.1603   -1325.1565   -940.89203    291.13277 
  322000       322000    293.84443    92391.171    5487.4303   0.96344716      154.562    3438.2902     4032.257     7334.932    5095.1018   -734.22155   -473.13273    1146.5664    293.84443 
  323000       323000    298.42498    92391.171    4846.8881   0.96344716    176.16032    3511.0765    4029.4129    4820.0655    5691.1859   -909.28259   -484.31848   -573.14807    298.42498 
  324000       324000    289.49561    92391.171    6016.7405   0.96344716    184.85775    3419.9876    6347.1969    6363.7491    5339.2755   -1178.3136    -451.0812   -153.55417    289.49561 
  325000       325000    294.14627    92391.171    5722.1558   0.96344716     161.3343    3448.4356    5639.8201    5795.8655    5730.7817    -509.8061   -1146.0905   -223.82181    294.14627 
  326000       326000    292.48032    92391.171    5050.7959   0.96344716    158.98497    3427.4692     3789.397    7061.3529    4301.6378    -746.2669    -218.1249   -791.81274    292.48032 
  327000       327000    294.61834    92391.171    5201.5683   0.96344716    225.92121    3518.2979    4994.8461    5814.7956    4795.0632   -2414.8802   -119.49858    1323.3443    294.61834 
  328000       328000    285.25064    92391.171    5840.6432   0.96344716     117.5342    3305.2263    3329.5324    7256.7575    6935.6398   -1516.2766   -564.15875    941.76945    285.25064 
  329000       329000    300.02846    92391.171     5812.819   0.96344716    247.64148    3600.4766    5046.2499    6199.7818    6192.4253   -1446.2876    541.14456    1140.1855    300.02846 
  330000       330000    290.95417    92391.171    4318.0043   0.96344716    229.63488    3481.0642    3646.4402     4231.105    5076.4678    -660.1948    647.31387     719.2401    290.95417 
  331000       331000    291.17283    92391.171    5653.8141   0.96344716    281.84558    3535.7185    4219.8392    6247.1456    6494.4576   -854.83844    -1373.678   -1217.5294    291.17283 
  332000       332000    291.92201    92391.171    5608.0036   0.96344716     108.3089     3370.554    5272.5437     5662.044    5889.4232   -2191.1841    493.21732   -275.84068    291.92201 
  333000       333000    294.01699    92391.171    4812.0932   0.96344716    249.80563    3535.4622    3818.4914    6052.5529    4565.2353   -335.10491     873.6211   -473.03719    294.01699 
  334000       334000    295.59071    92391.171    4058.9587   0.96344716    219.21323    3522.4563    1446.4051    4674.8309    6055.6401    257.41718    213.35183    308.13804    295.59071 
  335000       335000    290.50534    92391.171    5489.4857   0.96344716    117.60071    3364.0144    4334.8909    6802.4235    5331.1427   -910.98782       100.39    991.57926    290.50534 
  336000       336000    293.24261    92391.171    4676.6947   0.96344716     226.0722    3503.0751    3868.7626     5505.425    4655.8964   -1786.4294    524.56678   -824.73458    293.24261 
  337000       337000    288.12034    92391.171    4606.0302   0.96344716    161.40574    3381.1669    3647.0293    4655.5118    5515.5495   -1642.5027   -555.81078   -1026.3332    288.12034 
  338000       338000    293.48631    92391.171    5027.1484   0.96344716    208.39985     3488.126    3521.7813    6922.5274    4637.1365   -2114.9416    -313.6919   -18.945891    293.48631 
  339000       339000    287.43158    92391.171    4285.5858   0.96344716    204.57193    3416.6362    3359.2022     5134.102    4363.4532   -48.369915   -310.40806   -416.37688    287.43158 
  340000       340000    292.94233    92391.171    4521.2699   0.96344716    190.10983     3463.757    3465.9199    5056.6113    5041.2785    16.801947   -606.58481     80.45962    292.94233 
  341000       341000    293.91061    92391.171     5449.675   0.96344716    205.71172    3490.1795    3997.6452    6305.7514    6045.6283   -1414.5619   -526.85084    678.17173    293.91061 
  342000       342000    291.08948    92391.171    5139.4394   0.96344716    235.13805    3488.0795    3634.2869    5957.7876    5826.2436   -1881.8864   -377.45555    102.75034    291.08948 
  343000       343000    299.09394    92391.171    6024.0801   0.96344716    233.98887    3576.3807    6655.3156    6589.0199    4827.9047   -585.52056    329.31842    470.29131    299.09394 
  344000       344000    291.35283    92391.171    5408.0695   0.96344716    178.21407    3434.0985    5164.7881    5485.8746    5573.5457   -103.88778   -196.58111   -484.74265    291.35283 
  345000       345000       296.27    92391.171    5652.1598   0.96344716    233.86392     3544.698     4489.194    5729.7389    6737.5465   -549.10452   -772.90679   -583.79271       296.27 
  346000       346000    294.15864    92391.171    3760.4107   0.96344716    166.47819    3453.7177    3533.6324    3293.8337    4453.7659   -675.86098    227.60908    22.904553    294.15864 
  347000       347000    291.98446    92391.171    5075.1472   0.96344716    218.42043    3481.3634    3930.5043    5957.5911    5337.3463   -1384.9854    251.01084    302.27349    291.98446 
  348000       348000    289.21346    92391.171    5420.2054   0.96344716    254.06703    3486.0439    4808.1404    5305.4137    6147.0621   -1267.2528   -243.86958    43.911822    289.21346 
  349000       349000    298.86601    92391.171    4566.2317   0.96344716    155.13973    3494.9843    3316.5127    5387.3103    4994.8721   -928.74114    866.12223   -593.35789    298.86601 
  350000       350000     294.2812    92391.171    4895.3178   0.96344716    157.76136    3446.3706    4344.0748    4482.7847    5859.0939   -1363.9912   -22.106658   -617.84601     294.2812 
  351000       351000     295.0268    92391.171    5450.8514   0.96344716    138.19034    3435.1316    3725.9533    5846.9506    6779.6504   -2459.1702   -1481.6805   -626.14066     295.0268 
  352000       352000    297.41201    92391.171     5353.941   0.96344716    169.26535    3492.8615    4030.3196    4940.1588    7091.3447     -1020.93   -92.773341   -57.418465    297.41201 
  353000       353000     291.0646    92391.171    5534.8207   0.96344716      221.886    3474.5495    5243.4048     4040.699    7320.3582   -1465.7563    -881.0892   -729.27777     291.0646 
  354000       354000    290.91857    92391.171    4004.3097   0.96344716    229.47206    3480.5037    2240.6374    4396.6793    5375.6125   -878.69093   -223.75119   -876.59018    290.91857 
  355000       355000    288.19515    92391.171    5180.1082   0.96344716    216.55274    3437.1499    4010.9904    5970.1171    5559.2172   -290.81805   -627.91256    545.61277    288.19515 
  356000       356000    294.58907    92391.171    4951.7927   0.96344716    211.76545     3503.815    2860.6773    6773.7788    5220.9219   -1705.8569    1.9306886    -1201.008    294.58907 
  357000       357000    293.06358    92391.171    6027.4811   0.96344716    153.84575    3428.8479    4912.4157     6240.028    6929.9996   -1467.7233   -175.46123     241.2336    293.06358 
  358000       358000    294.81616    92391.171    6003.5511   0.96344716    199.08457     3493.672    5935.2884    6061.2888     6014.076   -2080.0944   -181.94142    1041.1157    294.81616 
  359000       359000    295.66706    92391.171    5076.0331   0.96344716    309.71371    3613.8099     4700.865     6778.222    3749.0123   -1774.2033   -664.64598    244.28227    295.66706 
  360000       360000    289.47813    92391.171    4506.4554   0.96344716    143.47057    3378.4051    4113.3194    5227.2664    4178.7802   -1292.8888    1232.5575    506.65579    289.47813 
  361000       361000    301.95446    92391.171    5455.8495   0.96344716    254.35511    3628.7133    5841.8439    4646.3363    5879.3683   -1543.1328    495.38304    -275.0389    301.95446 
  362000       362000    286.06513    92391.171     5396.212   0.96344716    133.77047    3330.5646    5156.5857    6538.0442    4494.0062   -356.77438    324.57981    605.58207    286.06513 
  363000       363000     298.5094    92391.171    5659.2002   0.96344716    204.48483    3540.3444    3265.7488    6713.0637     6998.788   -619.07665    132.01413     276.3003     298.5094 
  364000       364000    290.73575    92391.171    6452.8701   0.96344716    193.59992    3442.5884    5957.9443    6259.3771    7141.2888   -1266.2575   -1095.1221    236.38383    290.73575 
  365000       365000    289.36392    92391.171     5799.447   0.96344716    201.77706    3435.4353    3400.9994    6342.3421    7654.9995    -1784.468   -368.18421   -1512.9908    289.36392 
  366000       366000    291.05612    92391.171    6037.7671   0.96344716    144.51797    3397.0867    4516.3611    7479.7078    6117.2324    -2042.059   -281.99395    225.06493    291.05612 
  367000       367000    296.16409    92391.171     5234.968   0.96344716    239.18453     3548.835    4164.5507    6154.0877    5386.2657   -954.92771    258.16002   -144.91787    296.16409 
  368000       368000    296.73786    92391.171    5265.2467   0.96344716    166.65387    3482.7163    3097.2561     6045.092    6653.3921   -1222.8297    498.11056   -66.105823    296.73786 
  369000       369000    290.91773    92391.171    6034.7222   0.96344716    184.45643    3435.4786    5316.8676    6420.5825    6366.7166   -1678.1478   -668.15908   -768.59985    290.91773 
  370000       370000    301.72064    92391.171    4767.4046   0.96344716    144.94112    3516.6865    4496.2936    4939.9888    4865.9315   -813.24434    -465.6208   -807.70991    301.72064 
  371000       371000    286.42824    92391.171    4692.8749   0.96344716    161.72311     3362.575    3056.4611    6127.4003    4894.7633   -2042.5967    340.80512   -1238.6334    286.42824 
  372000       372000    294.34408    92391.171    4854.1685   0.96344716    199.05723    3488.3691    3172.7301     5602.383    5787.3923   -1629.5011    97.508793   -138.40633    294.34408 
  373000       373000    292.38758    92391.171    4813.5727   0.96344716    192.69035    3460.1382     4901.659    4489.3818    5049.6773   -1249.3475   -1159.3281   -698.59667    292.38758 
  374000       374000     292.0738    92391.171    4356.1097   0.96344716    204.33133    3468.2727    4018.5403    4358.9371    4690.8519   -895.72696    934.03318   -532.69636     292.0738 
  375000       375000    293.46253    92391.171    5627.5041   0.96344716    305.86124    3585.3217    4640.3641    5355.5789    6886.5695   -2106.4007   -747.45213   -670.32936    293.46253 
  376000       376000    293.23532    92391.171    6107.8097   0.96344716    126.53522    3403.4566    4240.6786    6741.7628    7340.9878   -2023.7063    726.21271   -319.94128    293.23532 
  377000       377000    298.30516    92391.171    5429.8343   0.96344716    73.767477    3407.3446    4477.3508    5846.0976    5966.0546   -178.26748    -363.0964   -438.02111    298.30516 
  378000       378000    292.69583    92391.171    5636.3785   0.96344716    259.16303    3530.0556    5039.7447    5640.2366    6229.1541   -1202.8195    1004.3017    1827.7281    292.69583 
  379000       379000     287.7507    92391.171     4242.416   0.96344716    111.86605    3327.4965    2821.2531    5207.0163    4698.9787   -1941.3865   -166.51357    143.05214     287.7507 
  380000       380000    290.34656    92391.171    4090.4904   0.96344716    291.34243    3535.9818    3238.1002    5888.8372     3144.534   -1095.7951   -156.29923    360.33569    290.34656 
  381000       381000    290.47463    92391.171    4810.6045   0.96344716     141.4414    3387.5119    4267.0823    4798.2555    5366.4758   -911.33537     1029.785   -496.45518    290.47463 
  382000       382000    290.55382    92391.171    5393.3005   0.96344716    128.18933    3375.1448    4217.8564     5923.472     6038.573   -959.33131    694.06332   -130.08838    290.55382 
  383000       383000    292.82261    92391.171    4246.8982   0.96344716     181.7305    3454.0398     2773.807    5407.8138    4559.0737   -1461.7686   -626.57938    650.53773    292.82261 
  384000       384000    293.86388    92391.171    4245.5216   0.96344716    166.16961    3450.1152     3504.374    4733.9136    4498.2773   -803.37381   -114.06365    838.15124    293.86388 
  385000       385000    289.78354    92391.171    4405.8284   0.96344716    137.27346     3375.621    3701.0126     5460.248    4056.2247   -911.57892    438.43606    -833.6392    289.78354 
  386000       386000    290.70256    92391.171    6097.1755   0.96344716    146.96183    3395.5794    6802.9398    6262.7711    5225.8156   -1702.2081     753.9561   -872.88047    290.70256 
  387000       387000    290.99289    92391.171    4484.8189   0.96344716    177.09861    3428.9607    4185.9133    5389.6327    3878.9108   -973.92636   -529.28249   -124.51173    290.99289 
  388000       388000    290.44074    92391.171    5020.0816   0.96344716    143.29571    3388.9875     3470.559    6034.0992    5555.5865   -826.74648    1271.1846    8.1144465    290.44074 
  389000       389000    292.93422    92391.171    5238.2289   0.96344716    224.44284    3497.9994    4185.3125    6606.1968    4923.1774   -1978.2194    257.76682    597.36515    292.93422 
  390000       390000    289.88237    92391.171    6303.0573   0.96344716    30.810213    3270.2622    5795.2954    6704.1468    6409.7296   -674.86375    744.65442    126.60956    289.88237 
  391000       391000    295.95706    92391.171      4662.39   0.96344716    170.61501     3477.952    3806.6646    6827.9502    3352.5553   -551.52119    780.68866    550.09112    295.95706 
  392000       392000    293.79163    92391.171    4688.8671   0.96344716    145.24506    3428.3832     2544.614    5566.7463    5955.2408   -988.85843     302.3417    1300.8614    293.79163 
  393000       393000      296.197    92391.171    4241.0162   0.96344716    130.48991    3440.5082    3010.3165    5824.6463    3888.0859     -1256.38     51.68228   -517.18278      296.197 
  394000       394000    296.08384    92391.171    4454.5595   0.96344716    123.40919     3432.163    3408.1382    5974.0465     3981.494   -718.00782   -624.14386    -635.8429    296.08384 
  395000       395000    297.93341    92391.171     3433.523   0.96344716    195.50394    3524.9267    665.02309    4722.7367    4912.8091   -1672.9695    132.75729     679.7514    297.93341 
  396000       396000    290.21925    92391.171    4718.6897   0.96344716    91.285708    3334.5023    3994.9179    5690.5287    4470.6224   -2340.6465    711.72916   -445.96541    290.21925 
  397000       397000    286.25477    92391.171    5514.3553   0.96344716    188.13366    3387.0469    5205.8342    5594.5393    5742.6922   -2047.0681    382.36298    487.86181    286.25477 
  398000       398000    292.87394    92391.171    5395.3536   0.96344716    207.32855    3480.2115    4430.3798    5920.9321    5834.7488   -1488.9416   -78.614603    11.531238    292.87394 
  399000       399000    291.75335    92391.171    6764.9856   0.96344716    128.55397    3388.9142    7165.8342    7395.4389    5733.6838   -1806.2713   -548.40902   -732.14048    291.75335 
  400000       400000    294.88487    92391.171    7135.2426   0.96344716    184.88521    3480.2404    6448.5936    7117.3152    7839.8191   -1047.1327   -1258.8607   -757.49248    294.88487 
  401000       401000    286.48774    92391.171    5177.1419   0.96344716    196.72696    3398.2438    4017.8061    5947.1006    5566.5191   -1285.0926    663.60635   -710.53051    286.48774 
  402000       402000    295.11476    92391.171    6154.6969   0.96344716    212.83023    3510.7545    5245.9859    6326.7111    6891.3936   -827.73824    60.296214    94.996933    295.11476 
  403000       403000    302.80848    92391.171    4768.8662   0.96344716    118.12551    3502.0275    5525.6771    4959.4196    3821.5021   -1050.6458    491.54761   -282.60342    302.80848 
  404000       404000    293.29384    92391.171         4973   0.96344716    243.35566     3520.931    3788.4965    5821.0151    5309.4884   -1774.5071   -72.434968    1287.8186    293.29384 
  405000       405000    290.68615    92391.171    5401.9483   0.96344716    121.20623    3369.6405    5627.0163    4092.3941    6486.4346   -1579.8493   -311.09263    43.448743    290.68615 
  406000       406000    299.44551    92391.171    4491.6623   0.96344716    192.01291    3538.3335    3991.5159    5545.6455    3937.8254   -1327.0186     834.6202   -377.24607    299.44551 
  407000       407000    290.05912    92391.171    3418.7586   0.96344716    170.71965    3412.1468     2691.017    4463.3196    3101.9393   -1396.7187    302.08765    1682.7763    290.05912 
  408000       408000    294.28458    92391.171     5946.185   0.96344716    104.87596    3393.5229     6064.408    5719.6896    6054.4574   -1369.9943   -15.702742    1009.9746    294.28458 
  409000       409000    295.24502    92391.171    5269.6685   0.96344716    186.94189    3486.3218    4808.5891    5924.3936    5076.0229   -1011.6526   -124.13928   -608.78066    295.24502 
  410000       410000     293.7108    92391.171    5145.2234   0.96344716    176.16975    3458.4046    4258.6738    5378.6609    5798.3355   -448.14563    688.28174   -199.19016     293.7108 
[...]
10904000     10904000    294.90418    92391.171     5177.354   0.96344716    127.38741    3422.9584    4420.4256    4545.3719    6566.2645   -1173.2615    78.991702    868.73779    295.33678 
10905000     10905000     292.4762    92391.171    5460.0479   0.96344716     222.0045    3490.4427    4321.5898     5187.995     6870.559   -1977.7078    260.17415    627.14828    292.91065 
10906000     10906000    293.59935    92391.171    5801.2495   0.96344716    202.94517    3483.9346    4665.1023    7547.6068    5191.0396   -1130.5234    612.83822     172.5276    293.97759 
10907000     10907000    293.85672    92391.171    5172.7739   0.96344716     137.7285     3421.594    3824.9114    5046.7155    6646.6948   -1213.4994   -711.36691   -459.97535    294.30809 
10908000     10908000    295.51337    92391.171    5677.3157   0.96344716    183.96752    3486.3462    4573.3031    6714.5687    5744.0754   -824.27534    993.61597   -11.886228    295.92289 
10909000     10909000    292.83379    92391.171     4450.464   0.96344716    129.21624    3401.6505    2802.5114     5620.289    4928.5915   -1620.6409    -879.3507   -333.22426    293.11111 
10910000     10910000     297.3612    92391.171    3891.3818   0.96344716    249.30167      3572.33    2479.3227    5191.0141    4003.8087   -1611.2172    40.468202    472.94339    297.61792 
10911000     10911000    287.33753    92391.171    3705.1072   0.96344716    136.79598    3347.8092    1665.4588    4749.9215    4699.9413   -843.20744    58.761969    462.50517    287.79704 
10912000     10912000    293.42748    92391.171    5521.4187   0.96344716    355.96378    3635.0325    5143.5756    5133.3797    6287.3008   -1093.2262   -543.38652    97.127001    293.80334 
10913000     10913000    292.92097    92391.171     5340.477   0.96344716    120.82889    3394.2374    4484.5515    5171.2606     6365.619   -1555.6997   -245.27524   -216.64619    293.30032 
10914000     10914000    291.75145    92391.171    5388.9875   0.96344716     281.4376    3541.7766    4374.5782    7494.1851    4298.1991   -1461.1393    443.69101    953.56346     292.1912 
10915000     10915000    293.12344    92391.171    5005.0816   0.96344716    142.08514    3417.7563    4137.1111    5230.2091    5647.9244   -1059.2706   -941.97532   -889.16331    293.63455 
10916000     10916000    293.45472    92391.171     5974.576   0.96344716    232.36029    3511.7335    5701.2506    5708.5882    6513.8892   -100.56613    -195.9367    160.43688    293.72529 
10917000     10917000    291.49038    92391.171    6142.0047   0.96344716    163.72491    3421.1465    6276.2089    6761.8193     5387.986   -170.66071   -1068.2706   -462.31419    291.78934 
10918000     10918000    291.53509    92391.171    4214.2568   0.96344716     217.1093    3475.0305    3366.1993    5239.5843    4036.9869     -1474.79    690.73439    765.26562    292.18467 
10919000     10919000    298.53863    92391.171    6409.6372   0.96344716    237.03585     3573.222    5516.5555    6788.9101     6923.446   -1017.8117    868.42435   -707.37563    299.01152 
10920000     10920000     289.2867    92391.171    4920.2871   0.96344716    211.56352    3444.3589    4731.3292     5147.317     4882.215   -702.01027   -377.05217    -429.6051    289.48578 
10921000     10921000    288.50499    92391.171    5572.9255   0.96344716    267.03175    3491.0914    4503.8662    6649.4086    5565.5016   -1881.0385   -382.02371    509.33484    288.86796 
10922000     10922000    294.20417    92391.171    4428.7453   0.96344716    226.48879    3514.2372    3942.6935    5050.7096    4292.8329   -1458.1504   -859.55835     231.4376    294.50846 
10923000     10923000    293.84731    92391.171    6135.6251   0.96344716    257.68024    3541.4406    6539.2097    6783.6696     5083.996   -2336.2694   -552.77861    371.47693    294.25056 
10924000     10924000    291.01057    92391.171    4899.3218   0.96344716    308.65946    3560.7191     4493.231    5217.0601    4987.6745   -2045.2597   -263.46665   -165.91559    291.36786 
10925000     10925000    294.63551    92391.171     4543.801   0.96344716    338.17255    3630.7412    4742.6073    5691.2114    3197.5844   -1484.4681    858.99872    -404.4614    295.03725 
10926000     10926000     287.3849    92391.171    6358.6191   0.96344716    169.50332    3381.0459    5774.7936    7401.2555    5899.8083   -1889.1891    214.21501    845.55363    287.74893 
10927000     10927000    297.84548    92391.171     6669.375   0.96344716    238.96881     3567.409    5083.4847    7116.0907    7808.5496   -2559.6281    822.76698      39.1824    298.39379 
10928000     10928000    294.22529    92391.171    4085.1981   0.96344716    199.28129    3487.2656    4389.8206    4439.1609    3426.6128   -1574.5804   -206.20783    78.572175    294.49799 
10929000     10929000    291.78927    92391.171    7276.9062   0.96344716    197.42744    3458.1891    7243.6818    6495.3614    8091.6754   -1502.5427    945.94659    654.76205    292.23405 
10930000     10930000    291.03406    92391.171    5081.9888   0.96344716    243.41681     3495.739    3911.8177     7162.043    4172.1056   -1042.8517   -282.12931   -745.23464    291.68229 
10931000     10931000    293.52849    92391.171    5516.3234   0.96344716    285.81127    3566.0088    4061.5084    7304.7893    5182.6726   -1321.7198    567.19221    880.35633    293.89677 
10932000     10932000    292.27399    92391.171     5217.813   0.96344716    262.48227    3528.6607    4780.3141    5031.3435    5841.7814   -2171.4583    935.30003    26.731109    292.54901 
10933000     10933000    286.15724    92391.171    5192.8558   0.96344716    276.70074    3474.5242    4641.1869    4837.7948    6099.5856   -1498.1216    176.46124   -400.28097    286.48904 
10934000     10934000    298.20609    92391.171    5638.1853   0.96344716    154.94109    3487.4111    5102.0192    5525.3814    6287.1553   -752.21278   -382.06396    450.09563    298.74756 
10935000     10935000    294.80641    92391.171    4861.2991   0.96344716    265.19932    3559.6777    5636.4332    5407.7765    3539.6875   -648.29441    347.99376    468.72668    295.55089 
10936000     10936000    290.95084    92391.171    5300.6377   0.96344716    187.76872    3439.1609    5806.7166    5597.8789    4497.3177   -1136.9298    566.42734   -263.19749     291.4032 
10937000     10937000    296.02198    92391.171    6108.2676   0.96344716    211.86443    3519.9269    6358.0122    5643.7092    6323.0813   -561.93747    749.27689    972.72767    296.38578 
10938000     10938000    294.10374    92391.171    5629.3175   0.96344716    121.52192    3408.1479     5061.288    5923.9579    5902.7067   -1571.6303   -16.101492    951.81403    294.34473 
10939000     10939000    290.47117    92391.171    5474.2837   0.96344716    205.89983    3451.9317    4443.2817    5957.3141    6022.2552   -1372.4116    246.15363   -1393.2014    290.70869 
10940000     10940000     295.6391    92391.171    6204.3137   0.96344716    268.61315    3572.3969    5769.2518    7203.1384    5640.5507   -1506.2751    356.66371     301.7842    296.19036 
10941000     10941000    292.19073    92391.171    5482.8955   0.96344716    152.01675    3417.2648    5587.8443    6515.8347    4345.0074   -503.70199    -72.96732   -157.58111     292.6128 
10942000     10942000    295.14634    92391.171    5714.1471   0.96344716    223.71384     3521.991    4959.7074    5424.4731    6758.2607    -1413.555   -991.44504   -860.71533    295.48919 
10943000     10943000    297.15767    92391.171    5590.1594   0.96344716    114.82817     3435.582    5409.7594    5706.1738     5654.545   -1675.6157    729.43943    991.36915    297.44654 
10944000     10944000    289.34906    92391.171    4153.9528   0.96344716    245.94631    3479.4385    3102.5776    4032.3252    5326.9557   -914.69154    271.17726    172.90322    289.74112 
10945000     10945000    297.17392    92391.171    4921.4923   0.96344716    204.25954     3525.195    4381.0616    5187.0498    5196.3655   -1594.4811    83.834056   -1025.3288      297.632 
10946000     10946000    296.89316    92391.171    3842.7758   0.96344716    145.96263    3463.7606    2069.5939    4520.8589    4937.8746   -2624.9087    42.351857    1760.0637     297.4223 
10947000     10947000    288.70726    92391.171    5097.8772   0.96344716    189.60412    3415.9242    4273.4368    6103.8456    4916.3492   -927.60892    -233.9557    325.29685     289.2205 
10948000     10948000    294.57741    92391.171    5247.6807   0.96344716    222.82935    3514.7486    4127.2431    6544.8305    5070.9686   -1922.9524   -799.02557   -867.61122    294.80592 
10949000     10949000     285.1236    92391.171    5723.9694   0.96344716    178.36771    3364.6401    4097.9823    7217.9212    5856.0047   -1272.6096   -415.67575    808.45504    285.55791 
10950000     10950000    299.73544    92391.171    5060.2033   0.96344716    190.75026    3540.3108    5044.1438    5607.1381    4529.3281   -799.70789    299.28842     75.29902    300.17959 
10951000     10951000     296.5154    92391.171    5337.9802   0.96344716    207.49539    3521.0718    5083.4617    6120.4263    4810.0527   -1159.4498    1563.0552    1204.6034     296.6787 
10952000     10952000    288.39609    92391.171    5296.0675   0.96344716    176.53285    3399.3756    3441.7833    5963.3549    6483.0643   -1562.1469   -649.90541   -637.37513    288.87384 
10953000     10953000    289.97947    92391.171     6362.386   0.96344716    246.51661    3487.0537    5912.6496    6905.4369    6269.0716   -627.05069   -978.78605    529.38688    290.37943 
10954000     10954000    288.53291    92391.171    6050.4624   0.96344716    254.53486    3478.9066    6647.6254    5697.3722    5806.3895   -1122.7968   -268.36792   -453.75942    288.92314 
10955000     10955000    295.37314    92391.171    4834.4057   0.96344716    162.28429    3463.0959    4081.1238    4624.0011    5798.0921   -1759.1793   -191.67912   -104.52337    295.75783 
10956000     10956000    297.23691    92391.171    4526.5516   0.96344716    224.56554    3546.2049    4696.3616     5509.425    3373.8681   -1421.7768    318.61078   -419.31921    297.60303 
10957000     10957000    299.45633    92391.171    5223.0814   0.96344716     143.3177    3489.7593     5992.869    4935.9979    4740.3772   -1208.6712    432.76335    110.60548    299.79019 
10958000     10958000    298.41451    92391.171    6364.4694   0.96344716    206.82735    3541.6264    5463.7951     7485.949    6143.6642    342.77904    -116.7411   -318.51082    298.62831 
10959000     10959000    295.54886    92391.171    5341.8117   0.96344716    206.41471      3509.19    4263.9914    5127.2141    6634.2296   -1543.6356    253.90296   -210.24659    296.03142 
10960000     10960000    287.18217    92391.171    4361.3675   0.96344716    184.60269    3393.8797    2853.3525    5442.7083    4788.0415   -747.29457   -32.004582    76.564845    287.72622 
10961000     10961000    301.04353    92391.171    4404.4495   0.96344716    219.30785    3583.4864    2628.2417    4445.1144    6139.9923   -1886.7752    197.86092    686.77795    301.39266 
10962000     10962000    287.11584    92391.171    4572.9514   0.96344716    146.63599    3355.1718    3979.3801    4578.7236    5160.7504   -1319.5104    -311.9469    1099.1946    287.67936 
10963000     10963000    302.66287    92391.171    4874.6148   0.96344716    243.85472    3626.1295    4099.3914    5267.3828    5257.0704   -1727.9686   -400.83256     1059.068    302.83089 
10964000     10964000    290.55621    92391.171    6011.2857   0.96344716    126.52585     3373.508    4679.6316      6558.67    6795.5556   -402.64082   -252.23176   -1439.3652    290.87087 
10965000     10965000    292.62752    92391.171    5789.8273   0.96344716     237.8985    3508.0277    5399.6166    4300.8767    7668.9885    -347.6292     651.6584    159.70694    293.14077 
10966000     10966000    294.54431    92391.171    4875.2589   0.96344716    233.57774    3525.1272    2955.6379    6519.8775    5150.2615    56.027654    799.32862    1584.9411    294.88235 
10967000     10967000    291.63625    92391.171    5162.1307   0.96344716    207.35338     3466.405    4850.7445    6116.9506    4518.6969   -1575.7587    151.13703    -9.814892    291.91082 
10968000     10968000    293.17593    92391.171    4870.6062   0.96344716    264.87902    3541.1368     4779.775    6153.0863    3678.9573   -1930.3484    759.68154   -1015.6946    293.58414 
10969000     10969000    292.16729    92391.171    5859.1777   0.96344716     141.2489    3406.2349    6070.5431    6584.4497    4922.5402   -1949.4704    -661.1143    -568.5496    292.63384 
10970000     10970000    291.12458    92391.171    6280.4334   0.96344716     213.1284    3466.4621    6948.4256    5443.3032    6449.5712   -638.20689    400.28693    163.70768    291.64633 
10971000     10971000    292.67336    92391.171     4037.855   0.96344716    205.98933    3476.6307    1859.8293    5331.6739    4922.0617    226.33572    76.574546   -245.67039    293.00064 
10972000     10972000    290.98139    92391.171    5164.5248   0.96344716    151.01323    3402.7468    5369.0206    4953.4365    5171.1174   -888.63266   -1245.2444    841.94485    291.34203 
10973000     10973000    296.62974    92391.171    5292.1359   0.96344716    229.89591    3544.7502    4872.7586    5810.1157    5193.5335   -1407.1382    1004.2749   -904.19686    297.12506 
10974000     10974000    293.58404    92391.171    5588.5813   0.96344716    90.979282    3371.7976    5454.0197    6009.9167    5301.8075   -1357.2161     210.4476   -386.08351    293.95938 
10975000     10975000    292.41267    92391.171    4681.1209   0.96344716    240.32239    3508.0506    3253.3339    4342.9148     6447.114   -956.55085   -398.03751   -986.85114     292.8557 
10976000     10976000    291.69422    92391.171    6424.4213   0.96344716    238.12666    3497.8262    5084.1014    6318.7774    7870.3852   -1678.7486     444.7876    1076.4719    292.19932 
10977000     10977000    289.62934    92391.171    4762.4773   0.96344716    208.14175    3444.7661     3764.482    5727.4462    4795.5037   -742.38161     1224.754    103.27885    290.10609 
10978000     10978000    298.77793    92391.171    5378.0685   0.96344716    171.20714    3510.0675    5060.1394    4895.2834    6178.7827   -1022.2657   -694.93469    176.66932     299.1919 
10979000     10979000    292.43198    92391.171    4339.5406   0.96344716     224.9718    3492.9158    4125.0489     4218.199    4675.3739   -729.24316     1083.963   -91.208906    292.97107 
10980000     10980000    294.61868    92391.171    5133.8244   0.96344716    173.02084    3465.4013    4438.3934     6871.053     4092.027   -1646.4571    541.02022    518.73853    295.08082 
10981000     10981000    294.86399    92391.171    4881.2896   0.96344716    169.61935    3464.7412    4186.6437    6422.0311     4035.194   -538.52882     1053.294   -24.993062    295.18427 
10982000     10982000    298.56017    92391.171    5415.6744   0.96344716    179.61965    3516.0465    3493.6509    7153.6045    5599.7679   -1921.0928    290.60369    928.73452    298.93175 
10983000     10983000    300.87653    92391.171    6354.5394   0.96344716    149.63239    3511.9447    4120.1405    7112.0399    7831.4379   -2210.9764    274.49041   -221.26806    301.37374 
10984000     10984000    292.11174    92391.171    4478.7259   0.96344716    211.20758    3475.5729    4541.0463    5116.6472    3778.4843   -1345.4083   -425.32315    632.36183    292.48968 
10985000     10985000    298.29244    92391.171    5700.9018   0.96344716    315.35696    3648.7919    5120.3661    6229.4587    5752.8805   -918.31848   -630.58167    1590.0262    298.95013 
10986000     10986000    285.72705    92391.171     5651.049   0.96344716    79.788135    3272.8042    5783.9941    5811.7186    5357.4344   -537.81472    487.31063   -72.939703    286.13686 
10987000     10987000    298.04288    92391.171    6144.0845   0.96344716     242.8139      3573.46    4464.4934    6414.8921    7552.8681   -634.75657   -347.32949   -248.83305     298.1741 
10988000     10988000    288.96573    92391.171    5076.3611   0.96344716    103.76586    3332.9744    4453.2676    5697.7318     5078.084   -825.30318     775.5356   -1236.5338    289.26246 
10989000     10989000    292.72774    92391.171    4860.2448   0.96344716    204.74704    3475.9962    5290.3242     5119.633    4170.7772   -1043.8915   -261.14931    424.05337    293.24744 
10990000     10990000    288.32365    92391.171    4905.5485   0.96344716    188.01738    3410.0506    4082.1356      5316.87      5317.64   -645.84731     4.534835   -73.009505    288.78982 
10991000     10991000    294.12399    92391.171    5464.9221   0.96344716    104.06632    3390.9187    4827.9224     6011.128    5555.7159   -1150.0966    192.64235    283.67645    294.29471 
10992000     10992000    293.38356    92391.171    6393.2904   0.96344716    138.47656    3417.0546    6165.8615    6444.9248    6569.0847   -1360.8741   -659.75295   -659.86457    Generated thermo.dat
Done!
stress
average  1131.65
square average  1.28275*10^06
number of blocks  100
variance  4.60247487771524940889
pxx
average  4646.48
square average  2.15987*10^07
number of blocks  100
variance  9.44648590746844866111
pyy
average  5805.78
square average  3.37132*10^07
number of blocks  100
variance  7.82214267320661954186
pzz
average  5419.71
square average  2.93804*10^07
number of blocks  100
variance  8.45193226428134597837
pressure, stress.strain, ktensor, virial are all concatenated
averages computed will all accumulated data until now
293.54877 
10993000     10993000    286.91765    92391.171    5845.7712   0.96344716     147.8021    3354.1232     5217.836    6663.7824    5655.6953     -1846.76   -138.32208    526.26975    287.46993 
10994000     10994000    286.48565    92391.171    3865.2498   0.96344716     273.0107    3474.5042    2447.4346    5669.6308    3478.6841   -258.76078    1440.3486   -837.15483    286.95955 
10995000     10995000    291.12401    92391.171    5540.8004   0.96344716    188.30424    3441.6316    5215.7683      6578.49    4828.1429    -185.2332   -1115.9367    944.56506    291.54455 
10996000     10996000    288.92801    92391.171    7269.1515   0.96344716    214.53939    3443.3264    6308.5618    7425.4182    8073.4745   -1200.6336   -136.93777   -380.19852    289.18482 
10997000     10997000    297.69997    92391.171    5449.1812   0.96344716    160.48222    3487.2963     5615.256     5274.806    5457.4815   -2353.9376   -641.34759     582.7542    298.17677 
10998000     10998000    288.99342    92391.171     5850.238   0.96344716    229.10248    3458.6204    5551.9728     8062.993    3935.7482    539.39867    732.70784   -8.7104016    289.39859 
10999000     10999000    294.94139    92391.171    5593.7667   0.96344716    245.36793    3541.3547    4603.9623    6396.1922    5781.1456   -1364.7875    -512.2322   -79.968882    295.35061 
11000000     11000000    288.60929    92391.171    4994.1348   0.96344716    73.782253    3299.0075    4118.8851    4839.2964    6024.2229   -929.49618   -485.25056   -90.217895    289.03362 
Loop time of 1580.43 on 48 procs for 5000000 steps with 3750 atoms

Pair  time (%) = 563.331 (35.6442)
Bond  time (%) = 98.9941 (6.26374)
Neigh time (%) = 289.351 (18.3084)
Comm  time (%) = 444.148 (28.1029)
Outpt time (%) = 0.439227 (0.0277916)
Other time (%) = 184.167 (11.653)

Nlocal:    78.125 ave 86 max 69 min
Histogram: 1 4 8 3 6 5 5 7 3 6
Nghost:    1397.31 ave 1418 max 1373 min
Histogram: 2 4 3 3 6 10 10 1 5 4
Neighs:    6986.44 ave 7734 max 6246 min
Histogram: 4 8 4 2 5 5 4 7 5 4

Total # of neighbors = 335349
Ave neighs/atom = 89.4264
Ave special neighs/atom = 6.26667
Neighbor list builds = 556114
Dangerous builds = 0
System init for write_restart ...

real	57m53.840s
user	0m0.089s
sys	0m0.266s
