LAMMPS (10 Feb 2015)
Read molecule SQL:
  30 atoms with 4 types
  29 bonds with 1 types
  34 angles with 1 types
  31 dihedrals with 2 types
  6 impropers with 1 types
Reading restart file ...
  restart file = 10 Feb 2015, LAMMPS = 10 Feb 2015
  triclinic box = (111.685 111.685 111.685) to (158.315 158.315 158.315) with tilt (0 0 0)
  3 by 4 by 4 MPI processor grid
  3750 atoms
  3625 bonds
  4250 angles
  3875 dihedrals
  750 impropers
30 atoms in group samplechains
Neighbor list info ...
  1 neighbor list requests
  update every 1 steps, delay 0 steps, check yes
  master list distance cutoff = 10.3
Setting up run ...
Memory usage per processor = 2.16244 Mbytes
Step Temp Volume Press Density PotEng TotEng 
13000000    293.93824    101385.64    1156.8884   0.86559249   -1111.2271    2173.5495 
13010000    290.48357    101385.64    803.04925   0.86559249   -1179.1972    2066.9732 
13020000    293.83554    101385.64    1245.5606   0.86559249   -1143.1092    2140.5196 
13030000    291.57962    101385.64    951.02187   0.86559249   -1145.2311    2113.1877 
13040000    289.94318    101385.64     1431.644   0.86559249   -1084.1963    2155.9353 
13050000    293.63171    101385.64    1203.1461   0.86559249   -1154.5785    2126.7726 
13060000    289.09917    101385.64     2206.007   0.86559249   -1151.8783    2078.8213 
13070000    292.35765    101385.64     1405.715   0.86559249   -1176.5506    2090.5628 
13080000    297.35055    101385.64    789.74304   0.86559249   -1108.7895    2214.1198 
13090000    290.88707    101385.64    1980.7981   0.86559249   -1178.0511    2072.6284 
13100000    289.15543    101385.64    1361.0151   0.86559249   -1073.6449    2157.6835 
13110000    287.56176    101385.64    1913.8088   0.86559249   -1174.2254    2039.2936 
13120000    293.42374    101385.64    844.39172   0.86559249   -1134.7803    2144.2467 
13130000    287.38822    101385.64    603.88127   0.86559249    -1122.964    2088.6157 
13140000    296.80299    101385.64    612.65487   0.86559249   -1224.4728    2092.3174 
13150000    296.45184    101385.64    778.05546   0.86559249   -1154.3759    2158.4902 
13160000    289.44741    101385.64    1624.7199   0.86559249    -1145.986    2088.6053 
13170000    294.79728    101385.64    1265.2501   0.86559249   -1148.6377    2145.7387 
13180000     296.4691    101385.64    844.18925   0.86559249    -1123.506    2189.5531 
13190000    290.73511    101385.64    1046.4931   0.86559249   -1145.1874    2103.7939 
13200000    291.85373    101385.64    845.56399   0.86559249   -1157.5704    2103.9117 
13210000    290.04208    101385.64    914.91671   0.86559249   -1140.5543    2100.6824 
13220000    295.37505    101385.64    756.38222   0.86559249   -1131.5552    2169.2778 
13230000    294.58046    101385.64    892.87936   0.86559249   -1126.8276    2165.1258 
13240000    282.81131    101385.64    559.94514   0.86559249   -1218.0804     1942.352 
13250000    294.36793    101385.64    1122.1737   0.86559249   -1078.3538    2211.2245 
13260000     289.0766    101385.64    559.68368   0.86559249   -1170.4441    2060.0034 
13270000    288.00215    101385.64    1140.8521   0.86559249   -1150.2999    2068.1406 
13280000    283.16498    101385.64    1366.8732   0.86559249   -1046.7246    2117.6602 
13290000    289.12732    101385.64    731.54983   0.86559249   -1149.6638    2081.3504 
13300000    293.15353    101385.64    1652.3485   0.86559249   -1161.8933     2114.114 
13310000    288.69662    101385.64    359.93048   0.86559249   -1215.6432     2010.558 
13320000    286.97241    101385.64    521.06366   0.86559249    -1021.566     2185.367 
13330000    291.89785    101385.64    525.63134   0.86559249   -1149.1632    2112.8118 
13340000    292.88981    101385.64    1644.0692   0.86559249   -1105.9823    2167.0781 
13350000    290.27256    101385.64    923.81508   0.86559249   -1165.1745    2078.6379 
13360000    290.67785    101385.64    1246.9582   0.86559249     -1063.13    2185.2115 
13370000    294.13868    101385.64    830.50599   0.86559249   -1087.6399    2199.3766 
13380000    292.73181    101385.64    248.12802   0.86559249   -1145.7066    2125.5881 
13390000    296.79005    101385.64    868.42256   0.86559249   -1094.2876    2222.3581 
13400000    294.54036    101385.64    1524.2087   0.86559249   -1130.1942    2161.3111 
13410000    289.75555    101385.64    1330.2331   0.86559249   -1028.0576    2209.9772 
13420000    298.74733    101385.64    1193.4142   0.86559249   -1132.7655    2205.7528 
13430000    298.28625    101385.64    1562.0921   0.86559249   -1076.7688     2256.597 
13440000    295.07899    101385.64    623.54513   0.86559249   -1166.9815     2130.543 
13450000    291.28173    101385.64    1345.5092   0.86559249   -1099.3387    2155.7512 
13460000    301.23975    101385.64    1061.0606   0.86559249   -1057.7216    2308.6498 
13470000    289.25749    101385.64    589.10942   0.86559249   -1096.4459     2136.023 
13480000    292.75947    101385.64    913.87721   0.86559249   -1222.9991    2048.6046 
13490000    296.87302    101385.64    795.58536   0.86559249   -1118.1272    2199.4457 
13500000    294.36532    101385.64    687.31398   0.86559249   -1101.0226    2188.5266 
13510000    295.31819    101385.64    671.19472   0.86559249    -1081.965    2218.2326 
13520000     299.2079    101385.64     798.7733   0.86559249   -1083.0684    2260.5969 
13530000    299.09283    101385.64    1405.9656   0.86559249   -1133.2948    2209.0846 
13540000    291.02359    101385.64    448.39506   0.86559249   -1199.9201    2052.2851 
13550000    287.59064    101385.64    1361.3802   0.86559249   -1112.2655    2101.5762 
13560000    299.42478    101385.64     531.8994   0.86559249    -1100.796    2245.2929 
13570000    291.03381    101385.64    1165.8693   0.86559249   -1086.2465    2166.0728 
13580000    290.50422    101385.64    335.50498   0.86559249   -1161.6797    2084.7215 
13590000    287.54338    101385.64    669.59346   0.86559249    -1079.758    2133.5556 
13600000    292.82026    101385.64     1001.793   0.86559249   -1106.3679    2165.9151 
13610000    291.80696    101385.64    765.46375   0.86559249    -1224.375    2036.5843 
13620000    285.51015    101385.64    1259.4938   0.86559249   -1156.4743    2034.1179 
13630000    290.77604    101385.64    1108.0181   0.86559249   -1185.1088      2064.33 
13640000    292.87391    101385.64    381.60586   0.86559249   -1116.1838    2156.6987 
13650000    289.02392    101385.64    722.79941   0.86559249   -1132.6229    2097.2358 
13660000    281.80428    101385.64     424.6385   0.86559249   -1212.9428     1936.236 
13670000    289.53973    101385.64    1187.9646   0.86559249   -1097.5805    2138.0424 
13680000    289.80838    101385.64    1864.6214   0.86559249    -1182.887    2055.7381 
13690000     294.7565    101385.64    975.82503   0.86559249   -1101.8976    2192.0231 
13700000    292.78962    101385.64    1112.6743   0.86559249   -1106.5514    2165.3893 
13710000    290.80239    101385.64    643.71869   0.86559249   -1043.2465    2206.4868 
13720000    297.36491    101385.64    1339.7155   0.86559249   -1093.9516    2229.1182 
13730000    296.02894    101385.64    1425.0439   0.86559249   -1107.1201    2201.0202 
13740000    297.07476    101385.64    1117.0179   0.86559249   -1197.4297    2122.3977 
13750000    292.79738    101385.64    855.36425   0.86559249   -1166.2104     2105.817 
13760000    293.63362    101385.64    403.38743   0.86559249   -1179.2036    2102.1689 
13770000    297.91674    101385.64      1451.36   0.86559249   -1137.1753    2192.0612 
13780000    301.26553    101385.64    892.53652   0.86559249   -1156.3723    2210.2872 
13790000    288.97922    101385.64    462.12271   0.86559249   -1112.1673    2117.1919 
13800000    295.10535    101385.64    968.19117   0.86559249   -1191.7835    2106.0355 
13810000    292.53886    101385.64    1188.8496   0.86559249   -1036.6223     2232.516 
13820000    291.06791    101385.64    595.32135   0.86559249   -1117.1017    2135.5987 
13830000    298.76172    101385.64      439.601   0.86559249    -1175.693    2162.9863 
13840000    288.55417    101385.64    587.77069   0.86559249   -1120.4197    2104.1896 
13850000    295.80145    101385.64    1145.3149   0.86559249   -1019.6565    2285.9415 
13860000    292.95309    101385.64    448.70965   0.86559249   -1208.6293    2065.1382 
13870000    299.08209    101385.64    753.22916   0.86559249   -1107.0459    2235.2136 
13880000    292.34498    101385.64    1099.2616   0.86559249   -1121.9485    2145.0233 
13890000    289.96278    101385.64   -235.84843   0.86559249   -1048.2145     2192.136 
13900000    298.27837    101385.64    1211.4255   0.86559249   -1138.0729    2195.2049 
13910000    293.10709    101385.64    952.92711   0.86559249   -1129.3039    2146.1844 
13920000    291.25007    101385.64    1356.2417   0.86559249   -1214.1894    2040.5467 
13930000    295.31784    101385.64     748.2307   0.86559249   -1110.9614    2189.2322 
13940000     293.6842    101385.64     1030.512   0.86559249   -1177.8018    2104.1359 
13950000    297.33951    101385.64      1031.41   0.86559249   -1150.5743    2172.2116 
13960000    291.13473    101385.64    1734.4513   0.86559249   -1186.6916    2066.7556 
13970000     300.0554    101385.64    1111.1087   0.86559249   -1103.4287    2249.7075 
13980000    284.82728    101385.64    1543.6725   0.86559249   -1096.8093    2086.1517 
13990000    292.91215    101385.64    1503.4711   0.86559249   -1138.7248    2134.5851 
14000000    294.92013    101385.64    298.43682   0.86559249    -1141.742    2154.0073 
14010000    288.89959    101385.64    126.89815   0.86559249    -1207.364    2021.1053 
14020000    292.76866    101385.64    488.30047   0.86559249   -1161.2333    2110.4731 
14030000    295.26492    101385.64    964.06037   0.86559249   -1154.5386    2145.0637 
14040000     289.2691    101385.64    1067.5939   0.86559249    -1214.419    2018.1797 
14050000    277.51879    101385.64    1569.0692   0.86559249    -1141.364    1959.9243 
14060000    290.07173    101385.64    1408.9595   0.86559249    -1135.703    2105.8651 
14070000    295.59409    101385.64    134.58905   0.86559249    -1162.778    2140.5029 
14080000    294.28338    101385.64    888.71558   0.86559249   -1136.0687    2152.5648 
14090000    294.95996    101385.64    723.63955   0.86559249   -1113.3277    2182.8666 
14100000    294.51488    101385.64    1286.0956   0.86559249   -1196.6258    2094.5947 
14110000    295.12149    101385.64     165.5174   0.86559249   -1148.4589    2149.5405 
14120000    291.58001    101385.64    1094.7877   0.86559249      -1119.3    2139.1232 
14130000     290.4874    101385.64    1056.7062   0.86559249   -1080.5091    2165.7041 
14140000    286.03456    101385.64    1332.5504   0.86559249   -1155.7307    2040.7218 
14150000    282.36152    101385.64    718.26511   0.86559249   -1094.4661    2060.9399 
14160000    292.86705    101385.64    1710.5439   0.86559249    -1127.393    2145.4129 
14170000    291.08533    101385.64    837.12868   0.86559249   -1226.6714    2026.2237 
14180000    290.98201    101385.64    1117.3202   0.86559249   -1123.2145     2128.526 
14190000    291.81853    101385.64    1172.4826   0.86559249   -1177.1583    2083.9303 
14200000    290.17808    101385.64    685.48343   0.86559249   -1032.0907    2210.6658 
14210000     294.5439    101385.64    1209.5715   0.86559249   -1093.6396    2197.9053 
14220000    292.40444    101385.64     584.5506   0.86559249   -1161.0155    2106.6207 
14230000    290.94427    101385.64    480.63623   0.86559249   -1091.6547     2159.664 
14240000    288.07661    101385.64    513.45502   0.86559249   -1127.3573    2091.9152 
14250000    294.22958    101385.64    1414.9287   0.86559249   -1170.9077    2117.1246 
14260000    287.75994    101385.64     1575.428   0.86559249   -1103.0599    2112.6738 
14270000    292.47408    101385.64    1038.3334   0.86559249   -1117.0714     2151.343 
14280000    291.03405    101385.64    1132.9635   0.86559249   -1099.9376    2152.3845 
14290000    290.78276    101385.64     1435.927   0.86559249   -1126.3272    2123.1868 
14300000     294.5634    101385.64    688.75811   0.86559249   -1158.0324    2133.7303 
14310000    296.46538    101385.64    1294.4683   0.86559249   -1229.2427    2083.7748 
14320000    298.55951    101385.64    979.05098   0.86559249   -1188.4455     2147.974 
14330000    295.60321    101385.64    1861.7498   0.86559249   -1138.3219    2165.0608 
14340000    291.99942    101385.64    507.05277   0.86559249   -1167.5674    2095.5428 
14350000    289.53754    101385.64    1345.1701   0.86559249   -1118.8111    2116.7873 
14360000    295.51922    101385.64    490.04201   0.86559249   -1120.1655    2182.2786 
14370000    291.53968    101385.64    1057.3949   0.86559249   -1224.4751    2033.4974 
14380000    297.07525    101385.64    2016.0964   0.86559249   -1258.2374    2061.5953 
14390000    293.31257    101385.64     323.4575   0.86559249   -1201.4414    2076.3433 
14400000    289.65492    101385.64    1436.3731   0.86559249   -1211.2742    2025.6359 
14410000    294.61626    101385.64   -361.13065   0.86559249   -1209.2136    2083.1398 
14420000    294.52715    101385.64    195.92357   0.86559249    -1170.141    2121.2167 
14430000    299.46154    101385.64    635.27887   0.86559249   -1126.8909    2219.6088 
14440000    296.42099    101385.64    167.61696   0.86559249   -1231.1507    2081.3707 
14450000    295.30832    101385.64     1259.432   0.86559249   -1179.7997    2120.2875 
14460000    294.19194    101385.64    1230.1146   0.86559249   -1183.2474    2104.3642 
14470000    300.51301    101385.64    470.85885   0.86559249   -1142.0825    2216.1675 
14480000     288.7954    101385.64    974.73257   0.86559249   -1151.8204    2075.4847 
14490000    290.40653    101385.64    1708.5281   0.86559249   -1226.5338    2018.7757 
14500000    298.08586    101385.64    758.64427   0.86559249   -1169.8074    2161.3191 
14510000    295.30782    101385.64    1282.8061   0.86559249   -1192.8804    2107.2013 
14520000    289.84115    101385.64    1274.1334   0.86559249   -1243.1537    1995.8375 
14530000    292.40438    101385.64    1787.1704   0.86559249   -1074.4989    2193.1366 
14540000    294.15633    101385.64    647.42534   0.86559249   -1231.7644    2055.4493 
14550000    291.73762    101385.64    177.28239   0.86559249   -1132.1006     2128.084 
14560000    301.11073    101385.64    615.85553   0.86559249   -1168.7592    2196.1703 
14570000    286.03314    101385.64    219.79279   0.86559249   -1136.9944    2059.4422 
14580000     300.2917    101385.64    1126.6986   0.86559249    -1095.291    2260.4858 
14590000    293.45253    101385.64     1010.473   0.86559249   -1166.0303    2113.3183 
14600000    290.61975    101385.64     1776.182   0.86559249   -1087.8031    2159.8892 
14610000    291.07285    101385.64    830.05863   0.86559249    -1122.023    2130.7327 
14620000    292.52343    101385.64    1240.3622   0.86559249   -1182.3093    2086.6567 
14630000    295.27796    101385.64    1494.2297   0.86559249   -1116.4813    2183.2667 
14640000     294.2413    101385.64    210.25876   0.86559249   -1098.2728    2189.8904 
14650000    296.21077    101385.64     377.8885   0.86559249   -1196.7665    2113.4057 
14660000    287.43647    101385.64    996.90465   0.86559249   -1180.3678    2031.7511 
14670000    291.30467    101385.64    1334.2252   0.86559249   -1156.6624    2098.6838 
14680000    292.36335    101385.64     905.0418   0.86559249   -1107.5427    2159.6344 
14690000    297.95811    101385.64    796.36007   0.86559249   -1100.0705    2229.6284 
14700000    292.67295    101385.64    123.14622   0.86559249   -1235.3547    2035.2821 
14710000    296.42092    101385.64    1153.6292   0.86559249   -1137.9863    2174.5343 
14720000    292.79007    101385.64    777.57732   0.86559249   -1157.1361    2114.8095 
14730000    298.18304    101385.64     1519.955   0.86559249   -1139.7918    2192.4207 
14740000    287.72519    101385.64    615.48882   0.86559249   -1207.4389    2007.9065 
14750000    294.07032    101385.64    781.38248   0.86559249    -1235.991    2050.2616 
14760000    291.86756    101385.64    990.26785   0.86559249   -1194.7037    2066.9328 
14770000    297.21801    101385.64    1167.1489   0.86559249   -1162.6563    2158.7719 
14780000    288.66473    101385.64    1126.1384   0.86559249   -1154.8609    2070.9839 
14790000    292.90389    101385.64    1096.0288   0.86559249   -1146.6385    2126.5791 
14800000    291.53807    101385.64    1193.5042   0.86559249   -1174.7483    2083.2062 
14810000    292.47106    101385.64    617.17462   0.86559249   -1176.2859    2092.0948 
14820000    289.14566    101385.64    630.70441   0.86559249   -1197.6971    2033.5221 
14830000    293.76001    101385.64    849.14903   0.86559249   -1113.4941    2169.2907 
14840000    298.99157    101385.64    1167.4949   0.86559249   -1103.9479    2237.2999 
14850000    295.62127    101385.64    1335.8206   0.86559249   -1131.6025     2171.982 
14860000     302.0524    101385.64    1750.6351   0.86559249   -1162.6772    2212.7755 
14870000    289.57963    101385.64    214.36414   0.86559249   -1077.1209    2158.9479 
14880000    291.96035    101385.64    885.76217   0.86559249   -1143.3708    2119.3027 
14890000    294.96954    101385.64    857.35253   0.86559249   -1182.4782    2113.8232 
14900000    292.07909    101385.64      878.039   0.86559249   -1234.3326    2029.6678 
14910000     293.3217    101385.64    1762.6386   0.86559249   -1183.9432    2093.9435 
14920000    293.15321    101385.64     1148.408   0.86559249   -1160.4866    2115.5172 
14930000    298.23763    101385.64    585.83295   0.86559249   -1113.8379    2218.9846 
14940000     296.1064    101385.64    523.81055   0.86559249   -1166.2268    2142.7791 
14950000    291.17603    101385.64    1024.9404   0.86559249   -1119.1205    2134.7882 
14960000    293.61042    101385.64     921.5864   0.86559249   -1161.7037    2119.4094 
14970000    290.00632    101385.64    1532.8859   0.86559249   -1203.4503    2037.3868 
14980000     285.9552    101385.64    1514.9846   0.86559249   -1119.3229    2076.2428 
14990000    288.41209    101385.64    837.23093   0.86559249   -1100.3895    2122.6321 
15000000      297.423    101385.64    991.12517   0.86559249   -1149.8292    2173.8896 
15010000    291.87211    101385.64    1082.4069   0.86559249   -1119.9268    2141.7606 
15020000    293.10489    101385.64    1867.7883   0.86559249   -1193.2172    2082.2466 
15030000    296.99809    101385.64    1262.6536   0.86559249   -1187.7125    2131.2581 
15040000    291.23449    101385.64   -348.46278   0.86559249   -1104.8727    2149.6894 
15050000    292.43396    101385.64    1634.3198   0.86559249   -1086.2133    2181.7529 
15060000    301.93062    101385.64    2138.0198   0.86559249   -1122.6855    2251.4064 
15070000    294.70644    101385.64    1628.3589   0.86559249    -1145.833    2147.5282 
15080000    293.05089    101385.64    1007.3894   0.86559249   -1129.8978    2144.9626 
15090000    284.04622    101385.64    808.64631   0.86559249   -1142.9785    2031.2541 
15100000    292.21494    101385.64    429.93477   0.86559249   -1096.3062    2169.2124 
15110000    290.19906    101385.64    1052.8609   0.86559249   -1124.7701     2118.221 
15120000    291.37999    101385.64    1198.6465   0.86559249   -1146.4981    2109.6899 
15130000    300.04101    101385.64    1289.4605   0.86559249   -1166.7804     2186.195 
15140000    294.98203    101385.64    587.89541   0.86559249   -1097.8844    2198.5566 
15150000    296.14464    101385.64    1734.4918   0.86559249   -1190.3331    2119.1001 
15160000     298.8721    101385.64    1641.1469   0.86559249   -1156.1527      2183.76 
15170000      289.819    101385.64    1212.1425   0.86559249   -1121.6586    2117.0852 
15180000    296.95156    101385.64    450.91122   0.86559249   -1109.1639    2209.2867 
15190000    296.32388    101385.64     397.6065   0.86559249   -1135.8303     2175.606 
15200000    295.02416    101385.64    1728.4044   0.86559249   -1125.5397    2171.3721 
15210000    293.92463    101385.64    577.75675   0.86559249   -1136.7415     2147.883 
15220000    304.30907    101385.64    1188.2534   0.86559249   -1103.7576    2296.9135 
15230000      295.904    101385.64    1690.6585   0.86559249   -1083.8894    2222.8546 
15240000    293.94436    101385.64    1492.8706   0.86559249   -1166.6222    2118.2228 
15250000    299.87723    101385.64    1510.1583   0.86559249   -1127.2034    2223.9418 
15260000     298.7169    101385.64    1090.3703   0.86559249   -1166.3797    2171.7986 
15270000    296.45227    101385.64    16.873225   0.86559249   -1156.0856    2156.7854 
15280000    291.78187    101385.64     673.6902   0.86559249   -1102.4314    2158.2476 
15290000    287.78622    101385.64    988.05052   0.86559249   -1150.0323     2065.995 
15300000    292.27837    101385.64    417.00991   0.86559249    -1149.857    2116.3704 
15310000    297.18633    101385.64    1220.0214   0.86559249   -1192.1653    2128.9088 
15320000    291.83503    101385.64    619.44379   0.86559249   -1128.5407    2132.7324 
15330000    290.06655    101385.64    1636.4781   0.86559249   -1141.8533    2099.6569 
15340000    290.76891    101385.64    661.21003   0.86559249    -1065.807    2183.5521 
15350000    288.55231    101385.64    1217.8472   0.86559249   -1046.9729    2177.6156 
15360000    290.09968    101385.64    1818.7144   0.86559249   -1101.5581    2140.3222 
15370000    291.74813    101385.64    264.54966   0.86559249   -1117.3176    2142.9844 
15380000    289.51753    101385.64    1147.7753   0.86559249   -1153.1239    2082.2509 
15390000    293.82041    101385.64    1202.7244   0.86559249   -1102.2982    2181.1616 
15400000    291.27535    101385.64    783.74015   0.86559249   -1043.0768    2211.9418 
15410000    296.46009    101385.64    1305.1642   0.86559249   -1113.6697    2199.2887 
15420000    292.06028    101385.64    1105.1666   0.86559249   -1088.8346    2174.9557 
15430000    293.06026    101385.64    1345.7575   0.86559249   -1167.4801    2107.4849 
15440000    297.20572    101385.64    1264.2851   0.86559249    -1191.909    2129.3817 
15450000    295.52277    101385.64    1264.2283   0.86559249   -1113.9846    2188.4992 
15460000    286.58072    101385.64    1794.6636   0.86559249    -1137.173    2065.3829 
15470000    294.37329    101385.64    1189.1895   0.86559249   -1126.0105    2163.6278 
15480000    295.99362    101385.64    1768.3423   0.86559249   -1133.4506     2174.295 
15490000    296.58779    101385.64    1394.8427   0.86559249   -1110.0571    2204.3283 
15500000    295.38393    101385.64    644.96251   0.86559249    -1052.156    2248.7761 
15510000    292.11764    101385.64    948.29172   0.86559249   -1115.7668    2148.6644 
15520000    301.73295    101385.64    1219.2321   0.86559249   -1098.3528    2273.5301 
15530000    295.42251    101385.64    1120.4079   0.86559249   -1131.2528    2170.1106 
15540000    297.46049    101385.64    1177.9807   0.86559249    -1135.603    2188.5348 
15550000    299.62614    101385.64    1667.3301   0.86559249   -1113.0335    2235.3057 
15560000    292.28424    101385.64    1185.1998   0.86559249   -1132.4961    2133.7969 
15570000    293.09509    101385.64    1809.7625   0.86559249   -1183.4108    2091.9436 
15580000    290.28354    101385.64     802.1324   0.86559249   -1191.6487    2052.2864 
15590000    293.52756    101385.64    181.24798   0.86559249   -1127.4962     2152.691 
15600000    294.37452    101385.64    1869.3335   0.86559249   -1123.2793    2166.3728 
15610000    296.99673    101385.64    541.39359   0.86559249   -1164.4951    2154.4603 
15620000    296.83609    101385.64    846.85191   0.86559249   -1041.9308    2275.2294 
15630000    295.69566    101385.64    675.42444   0.86559249   -1113.8299    2190.5859 
15640000     291.7033    101385.64    606.73163   0.86559249   -1124.7701    2135.0309 
15650000    289.94594    101385.64    764.24749   0.86559249   -1134.1771    2105.9852 
15660000    293.58812    101385.64    811.36966   0.86559249   -1172.3598    2108.5041 
15670000    291.44965    101385.64     1033.199   0.86559249   -1115.1907    2141.7757 
15680000    292.58205    101385.64    765.41018   0.86559249   -1161.6341     2107.987 
15690000    295.79186    101385.64    1418.1574   0.86559249   -1111.7396    2193.7513 
15700000    293.52967    101385.64    681.19866   0.86559249   -1130.7703    2149.4405 
15710000    292.33833    101385.64    1088.2812   0.86559249   -1086.6675      2180.23 
15720000     295.2013    101385.64    1280.3317   0.86559249   -1089.1902    2209.7012 
15730000    295.78407    101385.64    443.78327   0.86559249   -1153.0829    2152.3208 
15740000    297.44107    101385.64    1389.0909   0.86559249   -1151.6949    2172.2259 
15750000     292.6673    101385.64    674.51575   0.86559249   -1128.1099    2142.4638 
15760000    288.78117    101385.64    1260.7316   0.86559249   -1126.8443    2100.3017 
15770000    288.48719    101385.64    1288.0452   0.86559249   -1184.7342    2039.1266 
15780000    292.68172    101385.64    1127.5212   0.86559249   -1111.7282    2159.0067 
15790000    285.09301    101385.64    1405.8411   0.86559249   -1108.7857     2077.145 
15800000    296.58893    101385.64    769.90992   0.86559249   -1109.4311    2204.9671 
15810000    292.29898    101385.64    645.46344   0.86559249   -1143.8527     2122.605 
15820000    291.18407    101385.64     822.6013   0.86559249   -1124.2701    2129.7284 
15830000    296.62012    101385.64    299.91148   0.86559249   -1150.6846    2164.0622 
15840000    297.71411    101385.64    1266.1209   0.86559249   -1132.4511    2194.5209 
15850000    292.18938    101385.64    983.28809   0.86559249   -1104.5538    2160.6791 
15860000     286.1374    101385.64    169.91373   0.86559249   -1116.5157    2081.0861 
15870000    282.99063    101385.64    670.79893   0.86559249   -1224.1783     1938.258 
15880000    297.27085    101385.64    426.75906   0.86559249   -1155.9508    2166.0679 
15890000    294.81625    101385.64    705.71381   0.86559249   -1177.4835    2117.1048 
15900000    288.61463    101385.64    669.20955   0.86559249   -1144.6649      2080.62 
15910000    285.68711    101385.64    609.78127   0.86559249   -1141.6357     2050.934 
15920000    298.42807    101385.64    205.56768   0.86559249   -1142.9566     2191.994 
15930000    287.91809    101385.64    964.90764   0.86559249   -1144.9488    2072.5522 
15940000    293.03127    101385.64     955.5551   0.86559249   -1101.4254    2173.2157 
15950000    289.51493    101385.64    752.68689   0.86559249   -1112.9891    2122.3568 
15960000    288.36338    101385.64     951.5208   0.86559249   -1163.3231     2059.154 
15970000    297.87442    101385.64    1337.0093   0.86559249   -1144.9536    2183.8099 
15980000    290.71461    101385.64    1147.2923   0.86559249   -1146.0748    2102.6774 
15990000    298.61366    101385.64    1310.9657   0.86559249   -1195.1219    2141.9028 
16000000    291.58348    101385.64     1275.453   0.86559249    -1066.326    2192.1359 
16010000    294.84675    101385.64    812.16611   0.86559249    -1111.069    2183.8602 
16020000    296.69499    101385.64    1950.1309   0.86559249   -1155.7532    2159.8302 
16030000    293.16962    101385.64    639.22142   0.86559249   -1145.6834    2130.5038 
16040000     290.7808    101385.64    1896.3725   0.86559249   -1049.8292    2199.6629 
16050000    294.68201    101385.64    760.33319   0.86559249   -1165.8944    2127.1939 
16060000    288.70194    101385.64    1732.5488   0.86559249   -1134.4481    2091.8125 
16070000    296.76669    101385.64     1068.495   0.86559249    -1146.241    2170.1437 
16080000    294.30768    101385.64   -232.28819   0.86559249   -1121.3476    2167.5575 
16090000    295.42589    101385.64    224.98609   0.86559249   -1231.5853    2069.8159 
16100000    296.76089    101385.64    1477.1788   0.86559249   -1104.9252    2211.3946 
16110000    296.86021    101385.64    481.53956   0.86559249   -1119.9666    2197.4631 
16120000    294.43139    101385.64    264.22756   0.86559249   -1209.7397    2080.5478 
16130000    294.57951    101385.64    365.45277   0.86559249   -1209.1568     2082.786 
16140000     296.5599    101385.64    964.30996   0.86559249   -1198.4789    2115.5949 
16150000    290.21495    101385.64    1280.5142   0.86559249   -1103.5108    2139.6578 
16160000    296.68126    101385.64    1441.0615   0.86559249   -1081.1185    2234.3115 
16170000     292.9799    101385.64    1268.7278   0.86559249   -1085.9452    2188.1219 
16180000    287.60322    101385.64     1538.795   0.86559249   -1214.6984    1999.2839 
16190000    295.56669    101385.64    593.85311   0.86559249   -1099.5172    2203.4573 
16200000    294.26424    101385.64    888.15839   0.86559249   -1119.2452    2169.1745 
16210000     294.9252    101385.64     713.3084   0.86559249   -1055.7227    2240.0833 
16220000    289.68483    101385.64      1025.86   0.86559249   -1170.5507    2066.6937 
16230000    286.80991    101385.64    735.04846   0.86559249   -1261.8824    1943.2346 
16240000    291.09053    101385.64    994.10475   0.86559249   -1083.3044    2169.6488 
16250000    298.82071    101385.64    748.64461   0.86559249   -1192.9276    2146.4108 
16260000     295.7411    101385.64    1665.5051   0.86559249   -1089.7478    2215.1759 
16270000    295.89821    101385.64    1509.7312   0.86559249   -1132.1586    2174.5207 
16280000    297.89263    101385.64    1027.5267   0.86559249   -1164.3463    2164.6208 
16290000    298.03026    101385.64      1289.76   0.86559249   -1084.8567    2245.6484 
16300000    296.80117    101385.64    1526.8277   0.86559249   -1148.3255    2168.4444 
16310000    294.27415    101385.64    1805.4073   0.86559249   -1054.7147    2233.8157 
16320000    293.87215    101385.64    949.75803   0.86559249   -1154.8671    2129.1709 
16330000    288.61594    101385.64    1195.3538   0.86559249   -1112.4094    2112.8902 
16340000    294.86399    101385.64    499.04347   0.86559249   -1180.8306    2114.2912 
16350000     294.8884    101385.64    1006.6602   0.86559249   -1044.8231    2250.5716 
16360000    292.11963    101385.64    924.10767   0.86559249   -1078.7209    2185.7326 
16370000    290.20005    101385.64     1214.582   0.86559249   -1116.6308    2126.3714 
16380000    290.30999    101385.64    1052.5711   0.86559249   -1100.1728    2144.0579 
16390000    291.42259    101385.64    1311.0869   0.86559249   -1118.5089    2138.1551 
16400000    295.00044    101385.64    764.32904   0.86559249   -1126.8339    2169.8128 
16410000    293.03631    101385.64    1600.7018   0.86559249   -1111.2883    2163.4091 
16420000     293.3183    101385.64    861.34267   0.86559249   -1182.3737    2095.4749 
16430000    290.92297    101385.64    1468.0981   0.86559249   -1098.2888     2152.792 
16440000    301.00659    101385.64    988.20739   0.86559249   -1148.3819    2215.3839 
16450000    297.91121    101385.64    662.87892   0.86559249    -1083.505    2245.6697 
16460000    296.91489    101385.64    914.06362   0.86559249   -1213.9368     2104.104 
16470000    296.00207    101385.64    604.25533   0.86559249   -1219.8046    2088.0354 
16480000    293.89605    101385.64    1444.0608   0.86559249   -1168.8323    2115.4728 
16490000    294.59547    101385.64    788.19162   0.86559249   -1171.3321     2120.789 
16500000     290.0551    101385.64    652.94362   0.86559249   -1102.0278    2139.3544 
16510000    294.11503    101385.64    31.148591   0.86559249   -1134.8588    2151.8934 
16520000     298.3051    101385.64     687.2897   0.86559249   -1163.0443    2170.5322 
16530000    289.31731    101385.64    1874.5793   0.86559249   -1258.3088    1974.8285 
16540000    288.38434    101385.64    1158.1701   0.86559249   -1185.1114       2037.6 
16550000    294.87844    101385.64    1238.2994   0.86559249   -1157.4808    2137.8025 
16560000    292.93488    101385.64    203.60774   0.86559249   -1091.0207    2182.5432 
16570000    287.84995    101385.64    1415.8023   0.86559249   -1205.2157    2011.5239 
16580000    287.98292    101385.64    1095.3457   0.86559249   -1092.6314    2125.5941 
16590000    294.38608    101385.64    714.95878   0.86559249   -1081.7073    2208.0739 
16600000    302.07164    101385.64    1693.6023   0.86559249   -1216.1051    2159.5627 
16610000    291.58414    101385.64    2353.0032   0.86559249   -1189.4667    2069.0026 
16620000    296.60587    101385.64     1591.089   0.86559249   -1164.6378    2149.9497 
16630000    286.27909    101385.64    1171.2561   0.86559249   -1101.3231    2097.8621 
16640000    290.83868    101385.64    1494.2653   0.86559249   -1151.9465    2098.1923 
16650000    303.52493    101385.64    1418.9676   0.86559249   -1130.8757    2261.0326 
16660000    290.19584    101385.64    1661.1164   0.86559249   -1176.2403    2066.7146 
16670000    297.39407    101385.64    524.59893   0.86559249   -1158.4853    2164.9103 
16680000    297.56912    101385.64   -380.57244   0.86559249   -1168.9275    2156.4244 
16690000    297.18206    101385.64    1370.5576   0.86559249   -1110.3246    2210.7017 
16700000    294.50115    101385.64    1032.9304   0.86559249   -1129.0955    2161.9716 
16710000    294.37413    101385.64    377.05052   0.86559249    -1114.931    2174.7166 
16720000    295.08737    101385.64    840.19594   0.86559249   -1169.9044    2127.7137 
16730000    293.96888    101385.64    1267.2174   0.86559249   -1152.6278    2132.4911 
16740000    293.38591    101385.64     1431.927   0.86559249   -1104.8399    2173.7644 
16750000    288.04156    101385.64    1571.8021   0.86559249   -1087.3133    2131.5675 
16760000    294.78674    101385.64    1008.9499   0.86559249   -1228.6932    2065.5654 
16770000    296.70764    101385.64    722.12883   0.86559249   -1187.2393    2128.4855 
16780000    295.39168    101385.64    831.54326   0.86559249    -1074.108    2226.9108 
16790000    297.90875    101385.64    712.92606   0.86559249   -1111.3636    2217.7836 
16800000    290.17216    101385.64    303.83891   0.86559249    -1105.199    2137.4914 
16810000     294.1319    101385.64   -74.755534   0.86559249   -1145.2118    2141.7289 
16820000    294.84155    101385.64    1184.4045   0.86559249   -1119.4551     2175.416 
16830000    297.88584    101385.64    1489.4142   0.86559249   -1264.2419    2064.6494 
16840000    286.81443    101385.64    1185.4095   0.86559249   -1162.5385     2042.629 
16850000    298.45416    101385.64    614.20757   0.86559249   -1221.4201    2113.8221 
16860000    288.77121    101385.64    572.40313   0.86559249   -1070.2781    2156.7566 
16870000    299.61766    101385.64    1531.1858   0.86559249   -1098.9438    2249.3006 
16880000    292.12754    101385.64    1394.2629   0.86559249   -1137.3766    2127.1652 
16890000     288.4233    101385.64    906.23412   0.86559249   -1138.5363    2084.6105 
16900000    290.06882    101385.64    1053.6864   0.86559249   -1111.4787    2130.0568 
16910000    299.35473    101385.64    639.56157   0.86559249   -1136.8632     2208.443 
16920000    291.41947    101385.64    1471.7436   0.86559249   -1183.2263    2073.4028 
16930000    293.44631    101385.64    1358.3046   0.86559249   -1121.2137    2158.0654 
16940000    290.37558    101385.64    664.71687   0.86559249   -1046.1531    2198.8105 
16950000     285.8515    101385.64    532.47751   0.86559249   -1051.4192    2142.9876 
16960000    286.71301    101385.64    1054.2174   0.86559249   -1096.3314    2107.7028 
16970000    290.66262    101385.64    1409.3189   0.86559249   -1206.4938    2041.6775 
16980000    296.23966    101385.64    1132.9273   0.86559249    -1072.541    2237.9541 
16990000    291.80192    101385.64    620.26513   0.86559249   -1158.7545    2102.1485 
17000000      296.804    101385.64    1782.1692   0.86559249   -1079.9279    2236.8736 
17010000    294.24067    101385.64     958.7778   0.86559249   -1082.3652     2205.791 
17020000    298.84073    101385.64    975.26628   0.86559249     -1174.49    2165.0721 
17030000    295.61656    101385.64    434.90118   0.86559249   -1136.6247    2166.9072 
17040000    291.45629    101385.64    873.27734   0.86559249    -1118.204    2138.8367 
17050000    288.79589    101385.64    1276.3613   0.86559249    -1065.923    2161.3876 
17060000    291.81887    101385.64    1335.7137   0.86559249   -1137.3024      2123.79 
17070000    294.22534    101385.64    1221.5784   0.86559249   -1034.7855    2253.1995 
17080000    295.65995    101385.64    660.60579   0.86559249   -1111.0047     2193.012 
17090000    298.77345    101385.64    705.09165   0.86559249   -1171.4861    2167.3243 
17100000    294.13739    101385.64    818.56134   0.86559249   -1151.8151     2135.187 
17110000    291.77898    101385.64    453.25311   0.86559249   -1174.3243    2086.3224 
17120000    293.13147    101385.64     1062.214   0.86559249   -1111.5384    2164.2224 
17130000    295.65974    101385.64    278.89828   0.86559249   -1221.7273    2082.2871 
17140000    287.91154    101385.64    845.49178   0.86559249   -1088.6081    2128.8197 
17150000    293.02271    101385.64    2194.6086   0.86559249   -1136.0129    2138.5326 
17160000    294.25233    101385.64    1043.6319   0.86559249   -1216.2325     2072.054 
17170000    291.85771    101385.64    1494.9688   0.86559249   -1190.2326    2071.2939 
17180000    299.92795    101385.64    308.70621   0.86559249   -1128.4946    2223.2173 
17190000    301.64819    101385.64    361.24782   0.86559249   -1174.2654    2196.6702 
17200000    289.62607    101385.64    248.61783   0.86559249   -1194.2636    2042.3242 
17210000    292.22566    101385.64    1233.6863   0.86559249   -1156.4381    2109.2003 
17220000    294.99875    101385.64   -342.93158   0.86559249   -1128.7351    2167.8927 
17230000    291.18238    101385.64    374.76449   0.86559249   -1160.1242    2093.8554 
17240000    287.91399    101385.64    1687.3449   0.86559249   -1055.0142     2162.441 
17250000    290.17364    101385.64    1602.2562   0.86559249   -1143.6648    2099.0421 
17260000    292.42611    101385.64    549.44978   0.86559249   -1112.0227    2155.8557 
17270000    295.95529    101385.64    1869.5201   0.86559249   -1175.8425    2131.4748 
17280000    292.60415    101385.64    613.83323   0.86559249   -1144.1958    2125.6722 
17290000    293.90755    101385.64    1133.2052   0.86559249   -1243.6012    2040.8324 
17300000    296.45514    101385.64    771.17657   0.86559249   -1119.5163    2193.3867 
17310000    289.45075    101385.64    1285.4772   0.86559249     -1113.53    2121.0986 
17320000    287.65601    101385.64    36.065591   0.86559249   -1115.2804    2099.2919 
17330000    292.52437    101385.64    1132.1324   0.86559249   -1100.7688    2168.2077 
17340000    292.69126    101385.64    610.32909   0.86559249   -1104.7137    2166.1278 
17350000    287.27901    101385.64    990.26527   0.86559249   -1117.7637    2092.5955 
17360000    289.03332    101385.64    1630.2133   0.86559249   -1160.7441    2069.2197 
17370000    295.16757    101385.64    606.48465   0.86559249   -1150.9266    2147.5877 
17380000    290.96219    101385.64    1690.4432   0.86559249   -1114.8849    2136.6341 
17390000    295.59427    101385.64    703.78548   0.86559249   -1204.2297    2099.0531 
17400000    288.28917    101385.64    1768.2773   0.86559249    -1139.655    2081.9928 
17410000    299.39156    101385.64    1582.9297   0.86559249    -1086.923    2258.7947 
17420000    291.29088    101385.64    1035.3375   0.86559249   -1092.4319    2162.7602 
17430000    295.44234    101385.64    1994.6441   0.86559249   -1165.4195    2136.1655 
17440000    291.87914    101385.64    985.63243   0.86559249   -1134.0967    2127.6694 
17450000    296.49667    101385.64    1151.7986   0.86559249   -1136.9619    2176.4053 
17460000    296.08853    101385.64    1361.5166   0.86559249   -1138.9313    2169.8748 
17470000    291.28668    101385.64    1323.6941   0.86559249   -1124.5425    2130.6027 
17480000    295.04286    101385.64    1361.8268   0.86559249   -1209.7605    2087.3602 
17490000    294.54407    101385.64    486.92877   0.86559249   -1145.0134    2146.5334 
17500000    299.17803    101385.64    669.25827   0.86559249   -1148.9708    2194.3607 
17510000    287.82431    101385.64    1384.0651   0.86559249   -1146.5746    2069.8785 
17520000    290.36136    101385.64    896.81919   0.86559249   -1050.3806    2194.4241 
17530000    288.93147    101385.64    749.95501   0.86559249   -1167.3968    2061.4288 
17540000    288.55124    101385.64    1380.4425   0.86559249   -1144.1406     2080.436 
17550000    293.36488    101385.64    880.60192   0.86559249   -1136.3688    2142.0004 
17560000    286.18042    101385.64    1523.3794   0.86559249   -1132.4041    2065.6784 
17570000    297.73197    101385.64     1695.707   0.86559249   -1092.4495    2234.7221 
17580000    289.95041    101385.64    1000.2143   0.86559249   -1141.5097    2098.7027 
17590000    291.11956    101385.64    339.36628   0.86559249   -1139.7705    2113.5072 
17600000    294.94608    101385.64    440.35987   0.86559249   -975.74068    2320.2986 
17610000    297.14746    101385.64    796.21597   0.86559249   -1147.5666    2173.0731 
17620000    287.92122    101385.64    1285.4729   0.86559249   -1169.7471    2047.7889 
17630000    294.90462    101385.64     900.2722   0.86559249   -1107.9359      2187.64 
17640000    290.63273    101385.64     1067.565   0.86559249   -1196.8507    2050.9866 
17650000    294.88117    101385.64    1168.7988   0.86559249   -1145.4705    2149.8433 
17660000    294.67844    101385.64    496.22021   0.86559249    -1123.826    2169.2223 
17670000    294.70614    101385.64    1173.6041   0.86559249   -1094.5145    2198.8434 
17680000    296.21113    101385.64    113.96044   0.86559249   -1077.1271    2233.0492 
17690000    293.18489    101385.64    475.49698   0.86559249   -1115.2505    2161.1073 
17700000    290.97452    101385.64    979.68119   0.86559249    -1093.366    2158.2907 
17710000    286.39655    101385.64    197.98996   0.86559249   -1123.7345    2076.7632 
17720000    291.10952    101385.64    1030.1325   0.86559249   -1105.7302    2147.4352 
17730000    288.66714    101385.64    1948.0837   0.86559249   -1165.1933    2060.6783 
17740000    290.50074    101385.64    1080.1548   0.86559249   -1112.4461    2133.9161 
17750000    298.48979    101385.64    749.00232   0.86559249   -1022.8834     2312.757 
17760000    289.72854    101385.64    1427.4708   0.86559249    -1145.051    2092.6818 
17770000    297.85628    101385.64    189.92326   0.86559249    -1080.155    2248.4058 
17780000     294.7388    101385.64    1095.4618   0.86559249   -1174.9876    2118.7352 
17790000    292.36574    101385.64     144.7627   0.86559249   -1091.5548     2175.649 
17800000    293.51128    101385.64    1168.0453   0.86559249   -1152.3139    2127.6914 
17810000    295.11988    101385.64     2107.415   0.86559249   -1070.8865     2227.095 
17820000    290.86523    101385.64    698.91931   0.86559249   -1143.8104    2106.6251 
17830000    299.38442    101385.64    1265.6792   0.86559249   -1094.3447    2251.2932 
17840000    298.98713    101385.64   -215.32428   0.86559249   -1178.2799    2162.9183 
17850000    286.37296    101385.64    598.92456   0.86559249   -1229.1515    1971.0827 
17860000    292.04496    101385.64    843.82509   0.86559249   -1082.2783    2181.3407 
17870000    303.43054    101385.64    932.03241   0.86559249     -1135.07    2255.7835 
17880000    292.12242    101385.64    1442.0205   0.86559249   -1059.4601    2205.0246 
17890000    292.96476    101385.64    1148.5992   0.86559249   -1126.3559     2147.542 
17900000    293.49604    101385.64    1401.9015   0.86559249   -1183.6606    2096.1743 
17910000    301.02171    101385.64    1249.2028   0.86559249   -1099.7048    2264.2299 
17920000    292.83318    101385.64    492.73774   0.86559249   -1113.4175      2159.01 
17930000    289.53688    101385.64    1322.9757   0.86559249   -1174.7243    2060.8669 
17940000    296.09823    101385.64    1404.6235   0.86559249    -1101.118    2207.7966 
17950000    292.36837    101385.64    1223.4522   0.86559249   -1112.3164    2154.9168 
17960000    289.27322    101385.64    1410.0099   0.86559249   -1090.8779    2141.7668 
17970000    296.62517    101385.64     1515.312   0.86559249   -1113.7853    2201.0178 
17980000    293.33222    101385.64    728.21759   0.86559249   -1137.2782    2140.7261 
17990000     293.9524    101385.64    496.56742   0.86559249   -1159.6434    2125.2913 
18000000    297.21839    101385.64    1287.3987   0.86559249   -1094.1361    2227.2964 
Loop time of 1486 on 48 procs for 5000000 steps with 3750 atoms

Pair  time (%) = 527.479 (35.4966)
Bond  time (%) = 105.2 (7.07939)
Neigh time (%) = 258.63 (17.4045)
Comm  time (%) = 433.829 (29.1945)
Outpt time (%) = 0.0226734 (0.0015258)
Other time (%) = 160.838 (10.8236)

Nlocal:    78.125 ave 89 max 71 min
Histogram: 4 7 8 7 3 10 6 1 1 1
Nghost:    1317.02 ave 1343 max 1291 min
Histogram: 2 3 7 5 7 4 11 5 1 3
Neighs:    6335.06 ave 7266 max 5636 min
Histogram: 6 4 9 1 6 9 7 4 0 2

Total # of neighbors = 304083
Ave neighs/atom = 81.0888
Ave special neighs/atom = 6.26667
Neighbor list builds = 556922
Dangerous builds = 0
Setting up run ...
Memory usage per processor = 2.78489 Mbytes
Step Temp Volume Press Density PotEng TotEng 
18000000    297.21839    101385.64    1287.3987   0.86559249   -1094.1361    2227.2964 
18010000    290.69294    101972.14    800.60309   0.86061394   -1087.3069    2161.2033 
18020000    293.62783    101507.73    1098.1844   0.86455136   -1122.4384    2158.8692 
18030000    284.75988    101699.72    267.27057   0.86291925   -1085.1737    2097.0342 
18040000    296.13376    102094.72    1067.4726    0.8595806   -1129.5313    2179.7803 
18050000    297.40969    100700.08    1518.8026   0.87148538   -1068.5074    2255.0628 
18060000    299.05133     101003.4    1422.1088   0.86886823     -1036.07    2305.8456 
18070000    297.80951    101502.15    738.40048   0.86459889   -1041.7541    2286.2841 
18080000     288.1195    101624.55   -92.429571   0.86355755   -1046.8635    2172.8883 
18090000    287.87725    101686.12     693.5891   0.86303467   -1050.8983    2166.1462 
18100000    301.58531    101685.66   -136.02476   0.86303859   -1152.8662    2217.3668 
18110000    288.28524    101129.78     862.6567   0.86778239   -1113.3679    2108.2361 
18120000    287.96687    101571.56    1110.3352   0.86400802   -1072.6063    2145.4399 
18130000    294.16732    101827.94    1022.9285   0.86183269   -1093.4799    2193.8566 
18140000    298.85775    100836.07    1229.1908   0.87031008   -1165.0612    2174.6912 
18150000     294.5645     101170.5     505.1528   0.86743318   -1188.1591     2103.616 
18160000    293.59929    101020.33    1476.5885   0.86872262   -1159.6688      2121.32 
18170000    294.96125    101375.28    1203.7103   0.86568088   -1185.2149    2110.9938 
18180000    292.01054    100870.59    785.62127   0.87001217   -1092.1855    2171.0489 
18190000    295.93278    101104.56    839.47003   0.86799888   -1157.8887     2149.177 
18200000      295.057     101421.5    173.77333   0.86528642   -1081.0081    2216.2707 
18210000    296.04428    101069.91    357.74587   0.86829643   -1155.5026    2152.8091 
18220000    296.73009    101467.82    1544.4259   0.86489135   -1013.7883    2302.1873 
18230000    292.38336    101018.19    1238.5928   0.86874099   -1125.9113    2141.4894 
18240000    298.05922    101739.12    482.67542   0.86258505   -1129.3136    2201.5151 
18250000    293.90709    101666.32    1769.1421   0.86320269   -1078.2822    2206.1462 
18260000    291.59922    101158.63    1178.5506   0.86753491   -1134.0767    2124.5612 
18270000    295.25258    101121.88    975.53865   0.86785024   -1108.5581    2190.9063 
18280000    291.46969    101453.63    577.94633   0.86501241   -1095.3786    2161.8118 
18290000    286.47039    101157.53    881.17226   0.86754432   -1146.7178    2054.6051 
18300000    294.94795    101920.31    644.65434   0.86105161   -1154.9614    2141.0986 
18310000    285.65965    101418.46     555.3232    0.8653123   -1068.0375    2124.2254 
18320000    295.37643    101937.09    1208.1765   0.86090981   -1059.4307    2241.4177 
18330000    295.90791    100736.57    809.79847   0.87116969   -1165.3859    2141.4018 
18340000    293.42273    101325.23    1416.0406   0.86610853   -1166.8586    2112.1572 
18350000     289.9701    100503.34    1126.6188   0.87319134    -1173.375    2067.0573 
18360000    290.47408    100844.46     848.0244   0.87023762   -1060.8369    2185.2275 
18370000    295.38589    101423.58    1284.2125   0.86526867   -1128.2928    2172.6613 
18380000    287.71756    100948.17    454.27901   0.86934355   -1106.7609    2108.4992 
18390000    295.20043    101028.94    702.56146   0.86864853   -1134.6167    2164.2649 
18400000     293.3912    101297.56    798.99553   0.86634513   -1160.2156    2118.4478 
18410000    297.51653    101060.24    1425.5198   0.86837951   -1110.8312     2213.933 
18420000     289.4668    100868.81    1858.5589   0.87002754   -1139.3874    2095.4206 
18430000    291.45587    101228.92    1078.9374   0.86693252   -1129.4389     2127.597 
18440000    291.81492    100956.38    675.45025   0.86927289   -1093.6065    2167.4419 
18450000    298.21421    101165.92    657.89595   0.86747241   -1178.3205    2154.2403 
18460000    295.27674    100467.39    856.04726   0.87350377    -1143.013    2156.7213 
18470000    295.52117    101757.92    549.52134   0.86242573   -1166.8022    2135.6637 
18480000    297.55601    101818.27    604.66167   0.86191453   -1053.2654    2271.9399 
18490000    295.86981    101284.15     714.1678   0.86645977   -1110.0037    2196.3582 
18500000    283.27379    101358.09    1513.2099   0.86582771   -1089.6792    2075.9215 
18510000    292.78939    101068.45    797.71765   0.86830898    -1185.821    2086.1171 
18520000    285.86064    101590.54      1045.12   0.86384663   -1066.7841    2127.7249 
18530000    295.27702    101170.32    1019.4317   0.86743468   -1064.7612    2234.9763 
18540000    295.04259       101928    309.09052   0.86098665   -1107.6088     2189.509 
18550000     293.7166    101525.08    593.66726   0.86440361   -1088.0657     2194.234 
18560000     287.7865     102237.6    817.46665   0.85837935   -1091.4112    2124.6193 
18570000    290.62377    101505.16    491.01194   0.86457324   -1073.4256    2174.3115 
18580000    291.82465    101843.46    306.38518   0.86170137   -1035.6133    2225.5437 
18590000    296.45569    101605.18    727.93572   0.86372212   -1056.9702    2255.9389 
18600000    290.95231    102118.18    1058.2346   0.85938317   -1092.2264    2159.1823 
18610000    291.68679    101134.72    1182.8802      0.86774   -1082.0014     2177.615 
18620000    293.83176    102067.32    751.78614   0.85981138   -1029.9845    2253.6021 
18630000    291.96676    100879.48    162.70516   0.86993556   -1155.5511    2107.1941 
18640000    294.53012    101298.21    1003.2382   0.86633954   -1097.8529    2193.5379 
18650000    295.95879    101071.98    819.11192   0.86827866   -1116.8853     2190.471 
18660000    289.43281    101210.73    835.91358   0.86708831   -1047.6596    2186.7685 
18670000    291.93153    101363.18    261.24365   0.86578421   -1108.2855    2154.0659 
18680000    293.62818    101316.07    574.59471   0.86618681   -1099.3313    2181.9804 
18690000    301.92983    100766.62    1707.8671    0.8709099   -1056.6108    2317.4722 
18700000    298.65628    101077.64    313.57665   0.86823006   -1124.2947    2213.2062 
18710000    296.22432    101090.18    1807.3197   0.86812236   -1058.2218    2252.1018 
18720000      290.996    101638.71    9.3936132   0.86343718    -1162.662    2089.2348 
18730000    290.62523    101011.38    946.33582   0.86879962   -1064.2422    2183.5112 
18740000    288.50029    101237.97    363.96718   0.86685507   -1145.9937    2078.0134 
18750000    292.96717    100435.83    1301.3914   0.87377824   -1105.4504    2168.4744 
18760000    285.60516    100998.25    390.27338   0.86891249   -1141.4583    2050.1956 
18770000    293.31934    101224.84    1057.8324    0.8669675   -1096.8536    2181.0067 
18780000    295.78502    100426.36    1796.3122   0.87386061   -1145.6224     2159.792 
18790000    293.06753    101231.31    1331.3249   0.86691203   -1047.8386    2227.2078 
18800000    291.48799    100916.49    883.89579   0.86961652   -1231.2746    2026.1202 
18810000    292.56115    101913.05    1193.4343   0.86111289   -1157.1677    2112.2198 
18820000    296.13558    101126.38    274.17715    0.8678116    -1146.654    2162.6779 
18830000    299.35724    100220.99    1491.8202   0.87565133   -1140.8055    2204.5287 
18840000    294.58991    101048.37    949.55262   0.86848154   -1165.3946    2126.6644 
18850000    290.94357    101138.03    1431.7674    0.8677116   -1110.7062    2140.6047 
18860000    292.07717    101155.68    586.55092   0.86756023   -1153.0197    2110.9592 
18870000    298.32597     101309.4    1221.9558   0.86624388   -1091.8705    2241.9392 
18880000    298.21951    101262.99     429.7809   0.86664087   -1124.3334    2208.2866 
18890000    295.22006    100879.87     1534.501   0.86993217   -1081.7905    2217.3104 
18900000    294.10949    101278.22     1662.322   0.86651051   -1118.3383     2168.352 
18910000    291.67196    101215.69    308.59547   0.86704585   -1103.1407    2156.3101 
18920000    294.68459    100861.01    1625.6935   0.87009488   -1131.7031    2161.4139 
18930000    301.47439    100869.33    870.18936   0.87002311   -1152.0882    2216.9053 
18940000    294.31418    101131.26     904.8206   0.86776975   -1121.9224    2167.0553 
18950000    290.13874    100830.36    395.93819   0.87035936   -1166.9896    2075.3274 
18960000    290.67364    100831.24     943.1101   0.87035177   -1091.9036    2156.3909 
18970000    291.89309    101383.23    1569.9551   0.86561301   -1006.1105    2255.8113 
18980000    290.81295    101841.96    1478.4212   0.86171404   -1123.1795    2126.6718 
18990000    288.79892    101126.92    6.4539421   0.86780691   -1068.0901    2159.2543 
19000000    296.69556    100565.03    939.45897   0.87265571   -1115.1552    2200.4345 
19010000     299.9907    101299.68    627.07707   0.86632694   -1093.1119    2259.3012 
19020000    294.47819    101376.99    486.14469   0.86566632   -1138.5084    2152.3021 
19030000    297.89862    101121.43     352.9978   0.86785408   -1109.2164    2219.8176 
19040000    295.33994     100474.3    956.28608   0.87344368   -1165.4261    2135.0145 
19050000    295.48321     101156.4    1178.3478   0.86755401   -1202.8472    2099.1945 
19060000    285.64575    100960.91    1488.6661   0.86923392   -1168.7659    2023.3416 
19070000     297.0534    101215.25    1654.7651   0.86704965   -1177.9114    2141.6772 
19080000    292.19733    101063.93    906.37282   0.86834786   -1067.2803    2198.0414 
19090000    290.41197    101053.96    1590.9845   0.86843348   -1183.9216    2061.4486 
19100000    289.21856     100723.9    754.65004   0.87127925   -1204.3714    2027.6624 
19110000    294.81377    100959.03     1138.667   0.86925011   -1136.6161    2157.9445 
19120000     289.4638    100367.48    1006.1099   0.87437327   -1221.2618    2013.5126 
19130000    295.19325    99832.607    849.00496   0.87905793   -1255.4339    2043.3675 
19140000     294.6416    101509.74   -282.22374   0.86453425   -1122.6957     2169.941 
19150000    290.76358    100990.08    1498.2884   0.86898284   -1098.7537    2150.5459 
19160000    294.58577    101003.38    1293.0981   0.86886842   -1163.6593    2128.3534 
19170000    289.12989    100988.24    886.12618   0.86899863   -1125.9687    2105.0743 
19180000     287.9262    99938.566    689.82987   0.87812591   -1210.2828    2007.3088 
19190000    284.47176    101383.22    718.78348   0.86561312   -1115.3879    2063.6002 
19200000    290.79045    100616.41    2448.7978   0.87221008    -1143.809    2105.7908 
19210000    296.23381    100769.86    1317.6165   0.87088188   -1079.6709    2230.7589 
19220000    298.09161    101991.29    481.47794   0.86045237   -1136.9303    2194.2604 
19230000    290.99506    100899.31      993.322   0.86976455    -1203.352    2048.5344 
19240000    293.30488     100597.4    1291.2749   0.87237489     -1204.72    2072.9788 
19250000    295.99381    100682.93    946.32476   0.87163377   -1115.6384    2192.1093 
19260000    296.92442    100706.51    1419.0303   0.87142968   -1142.7934    2175.3539 
19270000     300.9423    101134.58    376.02307   0.86774122   -1179.4148    2183.6324 
19280000    293.74011     100749.1    857.94303   0.87106136   -1141.5654     2140.997 
19290000    292.64815    100950.32    244.84183    0.8693251   -1168.5536    2101.8061 
19300000    291.12979    101036.16    554.28445   0.86858649   -1150.5379    2102.8541 
19310000    295.42048       100604    1740.1286   0.87231764   -1139.1457    2162.1949 
19320000    289.20269    101141.82    89.911566   0.86767907    -1180.785    2051.0715 
19330000    294.27972    100823.83    1828.0285   0.87041566   -1089.0505     2199.542 
19340000    289.54903    100898.55    1239.9263   0.86977112   -1105.2435    2130.4833 
19350000    295.95491    101150.65    192.42653   0.86760337   -1156.2743    2151.0387 
19360000    293.03629    100705.34    307.66591   0.87143982   -1124.9085    2149.7886 
19370000    296.72562    100688.03    923.96172   0.87158964   -1067.4224    2248.5033 
19380000    294.63285    100568.68     747.6576   0.87262401   -1176.8373    2115.7015 
19390000    291.01484    100823.58    1688.6457   0.87041783   -1165.8048    2086.3026 
19400000    291.16564    100500.68    619.42607   0.87321443   -1182.5032    2071.2893 
19410000    289.80696    100254.92     1213.656     0.875355   -1169.5618    2069.0475 
19420000     292.4931    100740.73    1282.3778    0.8711337   -1127.7627    2140.8643 
19430000    290.02818    101116.92    841.03879    0.8678928   -1171.0127    2070.0687 
19440000    288.30036    100807.45    -551.1701   0.87055713   -1132.4544    2089.3185 
19450000    295.15815    100577.05    2480.3266    0.8725514   -1076.1062    2222.3029 
19460000    296.31526    100816.94    1484.7522   0.87047522   -1094.7915    2216.5483 
19470000    299.44026    101457.22    770.55098   0.86498179   -1169.4495    2176.8124 
19480000    289.58214    100930.32    1222.7067   0.86949735   -1110.9466    2125.1503 
19490000     286.6033    101246.76    817.10032   0.86677977   -1100.9417    2101.8666 
19500000    296.81147    100943.17    649.41597   0.86938666   -1121.4231    2195.4619 
19510000      288.514    101109.98    1945.0437   0.86795235    -1107.507    2116.6534 
19520000    291.29443    100973.24    1177.4758   0.86912776   -1130.0483    2125.1835 
19530000    296.69473    101103.04    658.80329   0.86801189   -1243.2543    2072.3262 
19540000    292.11363    100916.38    1028.0791    0.8696174   -1091.2422    2173.1442 
19550000     295.2694    100840.99    865.18535    0.8702676   -1100.5397    2199.1126 
19560000    290.14401    101532.89    554.84555   0.86433713   -1136.8338     2105.542 
19570000    297.84035    100234.45    860.48454   0.87553374   -1143.4045    2184.9784 
19580000    287.69538    100733.65    505.35322   0.87119494   -1138.5149    2076.4973 
19590000    293.21112    101054.06    404.17447   0.86843268    -1178.685     2097.966 
19600000    295.83786    101171.61    929.80221   0.86742366   -1164.1728    2141.8321 
19610000    292.62329    100740.92     1051.573   0.87113206   -1198.6293    2071.4526 
19620000    294.70097    101060.96    1015.2346   0.86837338   -1198.3821     2094.918 
19630000    291.50016    100979.66    1991.2418   0.86907253   -1148.1387    2109.3922 
19640000    299.81268    100116.64    1569.5882   0.87656405   -1226.1327     2124.291 
19650000    289.01931    101074.57    1093.2158    0.8682564   -1153.0171    2076.7901 
19660000    289.79843    100967.25    719.77654   0.86917932   -1156.5843    2081.9296 
19670000    291.23582    101814.51    1181.2287   0.86194635   -1116.5616    2138.0153 
19680000    293.63772    100919.48    696.52885   0.86959074   -1063.4774    2217.9409 
19690000    290.99652     100347.1    1067.2714   0.87455088   -1118.1296    2133.7731 
19700000    285.67113    100985.56    1586.4332   0.86902173   -1098.7471     2093.644 
19710000    300.09295     100968.1    1384.4724   0.86917202   -1047.0265    2306.5292 
19720000    295.59158    101450.74    543.17352   0.86503701   -1147.9424    2155.3104 
19730000    296.36552    101434.98    628.53807   0.86517143   -1095.9503    2215.9513 
19740000    287.91598    101348.25    1027.8373   0.86591175   -1132.1932    2085.2842 
19750000    286.22676    101449.09     387.7875   0.86505111    -1151.932    2046.6684 
19760000    293.76766    101995.28    650.82881   0.86041867   -1167.4995    2115.3708 
19770000     284.9671    100944.87    1486.3665     0.869372   -1103.9519    2080.5716 
19780000    287.98417    100800.33    384.35102    0.8706186   -1139.1429    2079.0967 
19790000    294.20055     100868.2    1058.9995   0.87003283   -1071.5422    2216.1657 
19800000    297.77779    101218.07    1116.0066    0.8670255   -1079.4535    2248.2303 
19810000    296.91714    101063.36    1670.6327   0.86835271   -1214.6259      2103.44 
19820000    292.39368     101340.8    1096.6446   0.86597547   -1134.6534    2132.8626 
19830000    288.98714    101747.58    1623.6688   0.86251334   -1084.5774    2144.8703 
19840000    300.01691    101372.31     675.9646   0.86570625   -1085.6849    2267.0211 
19850000    288.30568    102392.02    804.61169    0.8570848   -1052.4616    2169.3708 
19860000    290.89593    101267.92    1624.4931   0.86659864   -1088.6997    2162.0788 
19870000    300.46456    101291.86    1299.9436   0.86639383    -1094.397    2263.3115 
19880000    293.28246    101386.74    1276.2449   0.86558302   -1138.6507    2138.7975 
19890000    292.19562    101993.09    1354.1586   0.86043714    -1109.053    2156.2497 
19900000     293.8492    102117.04    521.62477    0.8593928    -1047.047    2236.7345 
19910000    292.72655    101711.45    1147.2335   0.86281973   -1073.8265    2197.4094 
19920000    295.49534    101523.11     390.2366   0.86442038    -1041.661    2260.5162 
19930000    289.00308    101410.23     625.3111   0.86538258   -1053.0845    2176.5414 
19940000    289.71158    102127.09    814.23435   0.85930819   -1095.8373    2141.7061 
19950000    293.68368    101568.69    1046.4358   0.86403243   -1149.5006    2132.4312 
19960000    290.81089    101608.72    1084.7149   0.86369208   -1100.6195    2149.2087 
19970000    294.18716    101223.18    581.85983   0.86698174    -1129.223    2158.3353 
19980000    294.56192    101153.57    270.52807   0.86757832   -1132.3798    2159.3664 
19990000    288.97269    101660.92    851.63935   0.86324853    -1175.622    2053.6642 
20000000    291.70392    101805.28    459.06384   0.86202451   -1074.8676    2184.9402 
20010000    288.79219    101185.94    1248.0681   0.86730077    -1248.707    1978.5622 
20020000    297.73844    100897.74    619.92856   0.86977812   -1029.3902    2297.8538 
20030000    298.66891     101952.9    936.69501   0.86077637   -1205.1952    2132.4469 
20040000     286.2776     101037.1    997.30006   0.86857845   -1107.3343    2091.8341 
20050000    290.90141    101228.83     1109.608   0.86693332   -1094.8066    2156.0332 
20060000    291.29185    100823.79    792.96876   0.87041603   -1144.4364    2110.7666 
20070000    289.66219     101626.4    823.88944   0.86354183   -1132.6797    2104.3117 
20080000    292.44103    101210.42    936.80391   0.86709096    -1137.098    2130.9472 
20090000    290.29622    101370.38    1434.4748   0.86572273   -1120.2039    2123.8729 
20100000    297.12106    101426.86    742.18887   0.86524066   -1137.4316    2182.9131 
20110000     293.7138    101528.13    1231.8043    0.8643776   -1062.5568    2219.7117 
20120000    288.94079    101960.18    679.94625   0.86071489   -1110.2374    2118.6923 
20130000    292.06396    101348.64    1071.4626   0.86590842   -1106.2566    2157.5748 
20140000    291.48327    101591.28    1207.3938   0.86384031   -1087.4981    2169.8441 
20150000    288.42418    101528.95    1012.4908   0.86437064   -948.82423    2274.3324 
20160000    298.65355    101655.12    1619.8243   0.86329785   -1085.9576    2251.5128 
20170000    293.42533    101769.91     1204.706   0.86232405   -1034.0141    2245.0306 
20180000    294.05047    101362.75    889.38711   0.86578793   -1022.8166     2263.214 
20190000    291.94919    101102.64    300.12885   0.86801539    -1109.274    2153.2748 
20200000    291.67433    102033.11    904.75402   0.86009963   -1100.9956    2158.4817 
20210000    291.96487    101958.32    689.24674   0.86073059   -1051.3956    2211.3285 
20220000     296.3988    101610.97    547.01779   0.86367295   -1068.5401    2243.7334 
20230000    292.74875    101160.42    1510.7568    0.8675196   -1164.1766    2107.3073 
20240000    293.43667    101652.42    191.75279   0.86332077   -1050.7842    2228.3873 
20250000    299.84056    101196.39    592.41123   0.86721123   -1117.6199    2233.1154 
20260000    293.88701    100868.75    1753.7251   0.87002805   -1127.6289    2156.5751 
20270000    294.11799    101433.81    1995.7324   0.86518141   -1122.3657    2164.4195 
20280000    294.49189    101725.26   -216.39191   0.86270262   -1118.8696     2172.094 
20290000    297.76546    101008.37    1104.1585   0.86882549   -1096.7271    2230.8189 
20300000    295.27893    101506.64    508.90357   0.86456062   -1039.5217    2260.2372 
20310000    288.77286    101197.53    2050.2198   0.86720143   -1187.9591     2039.094 
20320000    291.56675    101444.95    638.93271   0.86508636   -1102.7056    2155.5694 
20330000    292.97039    101049.82     764.5865   0.86846907   -1079.6149    2194.3458 
20340000    292.45997    101251.95    723.47464   0.86673539    -1016.356    2251.9008 
20350000    290.62684     101588.4    772.12971   0.86386482   -1162.0345     2085.737 
20360000    292.73086     101085.9    987.72676   0.86815913   -1164.8696    2106.4145 
20370000    290.21075     101546.2    948.12714   0.86422378   -1062.9885    2180.1331 
20380000    294.47194    101565.99    574.22767   0.86405545   -1057.7274    2233.0134 
20390000    291.10656    101375.95    1235.9204   0.86567516   -1075.7564     2177.376 
20400000    299.00962    101383.95    1057.2357   0.86560692   -1033.2703    2308.1791 
20410000    291.35917    101663.14    958.40633   0.86322973   -1086.4683     2169.487 
20420000    294.13157    102397.07    393.81934   0.85704252   -1060.1623    2226.7747 
20430000    292.68878    101458.26    920.07599   0.86497286   -1079.8338      2190.98 
20440000    292.89293    101304.74    1286.3839    0.8662837   -1075.8907    2197.2045 
20450000    299.08053    101587.97    1461.2619   0.86386847   -1078.8293    2263.4126 
20460000    292.25512    101263.65    807.58125   0.86663521    -999.5876      2266.38 
20470000     304.1155    102445.42    1077.6247   0.85663803   -1062.5495    2335.9585 
20480000    292.04714    101433.68    700.64524   0.86518251   -1111.2755    2152.3679 
20490000    289.23553    101722.87    437.28459   0.86272283   -1093.4305     2138.793 
20500000    290.09794    102077.21    1355.0409   0.85972807   -1171.8868    2069.9742 
20510000    296.14827    101719.46    1101.7673   0.86275179   -1189.9228     2119.551 
20520000    296.02446    101610.74    1328.6941   0.86367486   -1039.6915    2268.3987 
20530000     295.5782    101052.84     976.4051   0.86844317   -1092.5157    2210.5875 
20540000    297.65871    101252.94    2018.7554   0.86672689   -1128.6168    2197.7362 
20550000     300.5045    101213.02     923.8927   0.86706872   -1188.6018    2169.5531 
20560000    294.00848    101799.51     592.6539   0.86207335   -1086.8564     2198.705 
20570000    299.94358    101045.91    1405.2957    0.8685027   -1056.5627    2295.3238 
20580000    290.21021    101042.44    1204.0904   0.86853256   -1144.4045    2098.7111 
20590000    284.63411    100994.52    1420.6075   0.86894466   -1125.3592    2055.4431 
20600000    293.16455    100905.48    1264.4115   0.86971138   -1064.1389    2211.9916 
20610000     292.3357    101063.39    819.19116   0.86835246   -1111.3816    2155.4866 
20620000    302.11919    101653.48    984.75448   0.86331174   -1095.1556    2281.0435 
20630000    294.35651    101815.41     853.4163   0.86193871   -1069.1499    2220.3008 
20640000    293.42732    101097.89    698.40568   0.86805612   -1147.6697    2131.3973 
20650000    285.03512    101614.71   -216.78106   0.86364113   -1163.4304    2021.8533 
20660000    284.26539    100584.94    1154.5897   0.87248298   -1185.0469     1991.635 
20670000    292.55164    101158.98    642.42965   0.86753189   -1218.3123    2050.9689 
20680000    289.40619    101394.37    777.65776   0.86551796   -1149.5028    2084.6279 
20690000    291.55354    101947.41     1145.203   0.86082269   -1112.2793    2145.8481 
20700000    292.87332     101802.4    1555.9355    0.8620489   -1098.4627    2174.4132 
20710000    289.93027    101457.78    1537.9939   0.86497695   -1097.1249    2142.8623 
20720000    298.64882    100496.55    675.63622   0.87325031   -1161.8062    2175.6114 
20730000    289.95031    100990.34    763.64374   0.86898062   -1117.9355    2122.2757 
20740000    297.76872    100285.76    743.27175   0.87508581   -1291.7096    2035.8727 
20750000    292.52197    101224.12    1047.2252   0.86697362   -1095.8321    2173.1176 
20760000    289.07378    101329.55    914.33286   0.86607155   -1185.9959      2044.42 
20770000    291.75261    101112.21   -5.2517513   0.86793324   -1174.3314    2086.0205 
20780000    297.84913    101498.23    947.74069   0.86463223   -1148.0798    2180.4012 
20790000    290.59378    101144.02    371.42024   0.86766025   -1134.5498    2112.8522 
20800000    294.37983    101510.72    1063.4968   0.86452584   -1073.4616    2216.2498 
20810000    294.68071    100986.37    1715.3905   0.86901474   -1137.6743    2155.3995 
20820000    297.67869    101468.56    951.43873   0.86488509   -1125.6018    2200.9745 
20830000    296.47236    100870.23     1337.377   0.87001528    -1138.113    2174.9825 
20840000    296.78914    100718.97    245.72256    0.8713219   -1166.2275     2150.408 
20850000    291.11026    100843.34    1747.5904   0.87024729   -1147.0015    2106.1723 
20860000    291.01362    100532.32    4.7611919   0.87293965   -1299.1548    1952.9389 
20870000    292.30624    100637.11    1231.6119   0.87203066   -1148.7148    2117.8241 
20880000    294.72632    101268.73    324.92516   0.86659171   -1084.2493    2209.3341 
20890000    289.31794    100826.43     1341.026   0.87039322    -1070.437    2162.7074 
20900000    290.73614       101106    2647.3714   0.86798653   -1146.7537    2102.2392 
20910000    294.09624    100667.38    1253.4836   0.87176844   -1161.9176    2124.6246 
20920000    293.17094    101432.92    1287.5236   0.86518897   -1132.7228    2143.4791 
20930000    292.78234    101053.06    358.26554   0.86844121   -1151.4245    2120.4348 
20940000    288.63471    101265.38    915.03702   0.86662041    -1113.477    2112.0323 
20950000    291.87769    100988.15    356.47917   0.86899939   -1132.9739    2128.7758 
20960000    294.08974    101363.67    1038.2603   0.86578007   -1111.3818    2175.0877 
20970000    289.28162     100800.9     496.3151   0.87061367   -1144.2829    2088.4557 
20980000    292.31224    101426.21    1265.6398   0.86524624   -1173.8924    2092.7135 
20990000    290.90142    101237.72    2079.8118   0.86685721   -1126.1795    2124.6604 
21000000    302.30666    100892.88    1599.7692   0.86981999    -1140.897    2237.3971 
21010000    291.60833    100081.27     792.2734   0.87687377    -1244.927    2013.8126 
21020000    295.29882    101155.64     1831.773   0.86756057    -1187.617    2112.3641 
21030000    294.75792    101581.45    1509.8811   0.86392393   -1130.5545    2163.3821 
21040000    295.32811     101266.2    1048.2616   0.86661336   -1148.5129    2151.7956 
21050000    293.20286     101012.6   -260.39666   0.86878906   -1218.1888    2058.3699 
21060000    293.72129    100676.51    956.12526   0.87168942   -1164.7686    2117.5835 
21070000    296.83988    100923.25    891.48576   0.86955826   -1092.4841    2224.7184 
21080000    288.50364    101280.83    1024.6318   0.86648818    -1147.348    2076.6966 
21090000    291.45703    101393.07    650.25182   0.86552904   -1196.1329    2060.9159 
21100000    301.93289    100733.74    1854.8856   0.87119418   -1149.5669    2224.5503 
21110000    295.92123    101158.54    1856.4334   0.86753572   -1169.7077    2137.2288 
21120000    292.34965    100956.79    1186.2209   0.86926939   -1121.6993    2145.3246 
21130000    288.49088    100982.55    1592.9061   0.86904761    -1209.149     2014.753 
21140000    295.78254    100900.02    1463.5645    0.8697584   -1094.2057     2211.181 
21150000    293.77754    101133.33    1206.6411   0.86775194   -1092.7532    2190.2276 
21160000    291.87386     100944.6    1075.4354   0.86937433   -1194.3862    2067.3207 
21170000     297.2227    101461.31    637.55083   0.86494686   -1088.7668    2232.7138 
21180000    295.70039    101709.73   -26.477215   0.86283428   -1037.2813    2267.1873 
21190000    292.25392    101768.64    850.94141   0.86233487   -1136.6133    2129.3409 
21200000    295.52231     101118.9    995.38166   0.86787579   -1040.8537     2261.625 
21210000     290.3168    101435.76    1505.3975   0.86516478   -1073.3014    2171.0053 
21220000    298.66736    101004.07    1961.3153   0.86886242   -1142.2511    2195.3736 
21230000    294.15562    100875.91    1127.4504   0.86996634   -1210.9837    2076.2221 
21240000    287.63277    101343.56    1376.3253   0.86595186    -1050.345    2163.9675 
21250000    285.06578    101317.49    807.44527   0.86617464   -1136.4468    2049.1795 
21260000    299.08879     101031.5    449.14335   0.86862656   -1165.9897    2176.3446 
21270000    292.56503    101415.32    1346.2272   0.86533909   -1126.9901    2142.4407 
21280000    290.38806    100527.16    1401.1561    0.8729844   -1156.0363    2089.0668 
21290000    292.94024    100307.28    1744.2386    0.8748981   -1195.8568     2077.767 
21300000    285.34827    101756.52     1040.631   0.86243754   -1136.8856    2051.8975 
21310000    293.22122    100999.37    1241.2901   0.86890286   -1203.5297    2073.2341 
21320000     293.6649    100623.67    1068.2741   0.87214712   -1062.6858    2219.0361 
21330000    292.91333    100979.52    283.46681   0.86907371   -1204.8587    2068.4645 
21340000     289.8456    101172.94    285.45823   0.86741218   -1172.0164    2067.0246 
21350000    294.21679    101171.59    1622.0015   0.86742377   -1114.5213     2173.368 
21360000    288.61783    101240.73    1370.6928   0.86683137   -1231.4492    1993.8715 
21370000    297.34608    101249.58    990.84142    0.8667556   -1199.5618    2123.2975 
21380000    290.43152    101273.73     1522.129   0.86654893   -1098.6724    2146.9164 
21390000    292.88262    100945.77    1063.4352    0.8693643   -1138.0414    2134.9385 
21400000    293.61715    101036.06    1473.7321   0.86858735   -1222.3647    2058.8236 
21410000    286.23929    100683.31    1457.1646    0.8716305   -1200.0656    1998.6748 
21420000    287.89758    100301.18     953.5769   0.87495125   -1168.1255    2049.1463 
21430000    294.89567    101294.48    1339.3925   0.86637146   -1154.2315    2141.2445 
21440000    297.91479     100727.6    962.47259   0.87124722   -1272.1988    2057.0158 
21450000    291.91724    101213.19    1325.0329   0.86706724   -1160.3227    2101.8691 
21460000    299.46243    100920.12      1740.07   0.86958518   -1200.6258    2145.8839 
21470000    294.72653    100565.15    1508.8673   0.87265463   -1176.1388     2117.447 
21480000    292.02524    101332.23    594.35803   0.86604867   -1160.0282    2103.3704 
21490000    291.25996    101335.22    352.74568   0.86602311   -1127.7367    2127.1099 
21500000       290.14    101557.39    893.94302   0.86412862   -1112.5892    2129.7417 
21510000    287.48616    100908.31    935.86335   0.86968695   -1193.2847    2019.3895 
21520000    293.59807    100707.55    965.47358   0.87142069   -1239.8258    2041.1493 
21530000    287.17425     101276.2    787.56715    0.8665278   -1148.7533    2060.4353 
21540000    288.02068    100503.84    1838.8649   0.87318696   -1193.9609    2024.6866 
21550000     292.5422    100409.13    95.794922    0.8740106   -1118.6275    2150.5482 
21560000    291.04255    100690.56     908.0449   0.87156778   -1179.7872    2072.6299 
21570000    288.50741    101384.09     628.1483   0.86560568   -1115.5751    2108.5116 
21580000    298.11871    101199.73    844.30603   0.86718256   -1135.8224    2195.6712 
21590000    294.13407     101093.7    1446.0255    0.8680921   -1220.1307    2066.8342 
21600000    290.44815    101193.39    447.40173    0.8672369   -1147.5592    2098.2154 
21610000    295.63963    101318.36    90.523139   0.86616721   -1165.8865    2137.9032 
21620000    297.33948    101136.48    1368.8258   0.86772493   -1106.3722    2216.4134 
21630000     291.7868    101593.41   -143.01613   0.86382218   -1106.8612    2153.8728 
21640000    288.55816    101148.98    1201.4579   0.86761771   -1145.4392    2079.2147 
21650000    291.41168    101108.23    1063.2266   0.86796733   -1113.1127    2143.4294 
21660000    300.27644    100983.08    1365.7301   0.86904303   -1194.4478    2161.1585 
21670000    293.53913    100967.39    1095.8661   0.86917811   -1162.9492    2117.3672 
21680000    293.04385    100931.05    679.76137   0.86949107   -1164.0074    2110.7742 
21690000     295.5936    100531.99    1845.6094   0.87294244   -1186.1757    2117.0995 
21700000    293.93943    101202.05    1357.5588    0.8671627   -1174.8653    2109.9245 
21710000    295.49456     100775.3    1040.2603    0.8708349    -1089.789    2212.3795 
21720000    288.90796    101318.66    1381.8728   0.86616468   -1209.6618    2018.9011 
21730000    287.42877    101770.19    734.36177   0.86232174   -1083.6915    2128.3413 
21740000    290.10164    101214.15     1343.906   0.86705907   -1216.5573     2025.345 
21750000    290.55746    100948.58      1178.27   0.86934006   -1205.3839    2041.6122 
21760000    282.22476    100823.49    1276.6954   0.87041867    -1165.218    1988.6598 
21770000     298.7881    100791.37    1063.1052   0.87069602   -1123.4261    2215.5479 
21780000    290.23797    100978.97    918.73422   0.86907846   -1184.2112    2059.2146 
21790000    298.08242    100987.37    1211.9378    0.8690061   -1176.5906    2154.4974 
21800000     284.3514    100950.64    716.27119   0.86932233   -1172.2219    2005.4212 
21810000    294.77619    100669.57    1738.2294   0.87174948    -1117.198    2176.9426 
21820000    293.01233    100766.38    1290.8459   0.87091192   -1077.2891    2197.1403 
21830000    296.27337    101239.84    695.01279     0.866839   -1147.2139    2163.6579 
21840000    297.28592    100916.34    441.51975   0.86961775   -1161.5978    2160.5893 
21850000    287.56611    101485.36    108.33024   0.86474193   -1177.1182    2036.4494 
21860000    299.69761    101254.79    1321.6416   0.86671104   -1153.7768    2195.3611 
21870000    296.06023    101505.01    490.72464   0.86457449   -1215.3868    2093.1031 
21880000    296.34767     101621.5    1031.0552   0.86358344   -1165.1094    2146.5927 
21890000    294.95163    101202.23    1011.0639   0.86716119   -1156.6847    2139.4166 
21900000    290.52275    101282.68    834.82283   0.86647235   -1145.1255    2101.4828 
21910000    290.45174    101163.75    1891.8578     0.867491   -1230.4809    2015.3339 
21920000    289.27039    101771.79    1618.0877   0.86230814   -1223.2826    2009.3304 
21930000    291.78144    101241.92     901.6746   0.86682124   -1198.2874    2062.3868 
21940000    285.19614    101029.83    520.34656   0.86864089   -1209.6367    1977.4464 
21950000    290.51395    101242.26    1233.6923   0.86681835   -1215.0808    2031.4291 
21960000    294.68199    101281.21    318.94683   0.86648497   -1124.3874    2168.7006 
21970000    298.58233    101079.33    1709.5011   0.86821551    -1203.019    2133.6555 
21980000    291.05061    101207.67    1070.4671   0.86711453   -1069.8359    2182.6712 
21990000    298.12212    101852.27    1761.4499   0.86162678   -1083.3882    2248.1434 
22000000    291.25211    100947.91    507.85786   0.86934581   -1183.1115    2071.6474 
22010000    292.77931    101506.75    1241.7487   0.86455966   -1173.9355    2097.8899 
22020000    300.30227    101376.52    526.03684   0.86567036   -1142.9692    2212.9257 
22030000    296.22825    100929.71    71.665101    0.8695026   -1205.4775      2104.89 
22040000    291.37111    101029.34    948.82009   0.86864514   -1082.6767     2173.412 
22050000     284.5853    100987.29    1344.2933   0.86900684   -1185.7558    1994.5011 
22060000    295.81025    100479.75    955.93438   0.87339632   -1113.2474     2192.449 
22070000    300.42988    101233.36    1100.9298   0.86689452   -1091.0814    2266.2395 
22080000    290.68648     101145.9    1129.8397   0.86764411   -1114.5695    2133.8685 
22090000    293.10916    100541.58    1414.4252   0.87285918   -1133.0895     2142.422 
22100000    295.03417    100404.59    144.65918   0.87405014   -1190.3977     2106.626 
22110000    292.73086    101223.63    327.50886   0.86697781   -1238.6153    2032.6687 
22120000    292.82667    101230.94      1265.82    0.8669152   -1134.4269    2137.9278 
22130000    294.79916    100253.05    1594.9521   0.87537128   -1157.7853    2136.6121 
22140000    292.24668     100971.6    915.43085   0.86914182   -1117.4398    2148.4334 
22150000    294.05529    101537.31    1236.5067   0.86429945   -1131.5043    2154.5803 
22160000     292.5597    101608.11    385.00068   0.86369724   -1145.0988    2124.2725 
22170000    290.21178    100472.44    359.45694   0.87345989   -1131.0461    2112.0871 
22180000     289.3482    100529.69    883.48221   0.87296243   -1089.1572    2144.3254 
22190000    296.60824    100493.72    1335.5667   0.87327487   -1188.3646    2126.2494 
22200000    285.81054    101287.06    544.82449   0.86643491   -1153.4207    2040.5283 
22210000    297.14827    101466.25    1226.0607   0.86490479   -1154.4934    2166.1554 
22220000    294.29625    101134.15    1713.4478   0.86774494    -1173.924    2114.8534 
22230000    298.40877    101507.18    2565.4838   0.86455606    -1121.253     2213.482 
22240000    291.89685    101356.45    1414.6529   0.86584177   -1205.3487    2056.6152 
22250000    293.19891    100670.35     692.3514   0.87174274   -1228.3178    2048.1967 
22260000    294.06906    100684.15    1045.7653   0.87162328   -1271.4454     2014.793 
22270000    300.80825    100384.61    1430.5108   0.87422409   -1140.0172    2221.5321 
22280000    296.66426    100890.63     759.5443    0.8698394   -1174.4642    2140.7758 
22290000     293.3468    101184.06    1543.9278   0.86731693   -1150.3575    2127.8097 
22300000     296.3345    100828.23    345.93262   0.87037773   -1097.1494    2214.4055 
22310000    289.45739    100174.56    426.22052   0.87605717   -1214.5663    2020.1365 
22320000    289.49891    100738.86    783.16166   0.87114987   -1126.7868      2108.38 
22330000    292.81337    101020.48    1460.2351   0.86872129    -1106.733     2165.473 
22340000    291.11429    100913.55    1283.1198   0.86964186   -1156.4704    2096.7483 
22350000    298.81331    101127.88    1320.2146   0.86779875   -1077.8645    2261.3912 
22360000    292.06186    101477.02    595.09895   0.86481301   -1098.9152    2164.8927 
22370000    292.27358    101207.33    867.98223   0.86711745   -1163.6815    2102.4924 
22380000    296.60276    101292.56    84.724279   0.86638783   -1218.9055    2095.6472 
22390000    286.65009    101485.84    1271.7077   0.86473784   -1115.1706    2088.1605 
22400000    289.58773    100502.62    926.48412    0.8731976   -1106.7433     2129.416 
22410000    291.11336    100985.95    1240.1695   0.86901835   -1101.2577    2151.9506 
22420000    294.45079    101229.16    1268.3658   0.86693048   -1167.5824    2122.9219 
22430000    293.52375    101346.56    298.99879   0.86592623   -1122.2633    2157.8812 
22440000    294.31311    100685.39   -293.99734   0.87161246   -1146.9091    2142.0567 
22450000    284.68738    101290.82    638.66704   0.86640271    -1136.482    2044.9156 
22460000    289.38256    101023.44    1484.0354   0.86869587   -1171.7778    2062.0888 
22470000    288.72855    100975.28    1225.4508   0.86911017   -1210.2103    2016.3477 
22480000    297.93624    100486.81    1665.7111   0.87333494   -1222.8652    2106.5893 
22490000    290.17494    101874.39    671.10585   0.86143969   -1157.5556    2085.1658 
22500000    292.07014    100938.77    823.39127   0.86942456    -1158.859    2105.0414 
22510000     285.3341    100953.46    218.56719   0.86929807   -1178.8076    2009.8172 
22520000    290.78314    100752.95    940.50393   0.87102802   -1194.7985    2054.7196 
22530000    285.81166    101295.36    699.25878   0.86636388   -1153.4172    2040.5443 
22540000    292.28398    101180.38    1385.3346    0.8673484   -1133.6649    2132.6253 
22550000    291.59955     100701.2    909.50869   0.87147562    -1183.957    2074.6846 
22560000    287.40037       101013    326.09539   0.86878568   -1137.4036    2074.3119 
22570000    295.61501    101178.28     967.9245   0.86736641    -1152.921    2150.5935 
22580000    287.13852     101320.6    983.82658   0.86614809   -1135.4017    2073.3875 
22590000    287.96067    100799.16    1300.3777    0.8706287   -1230.2034    1987.7735 
22600000    288.38225    101387.67    1577.3055   0.86557511   -1102.8352    2119.8528 
22610000    297.46884    101096.76    1232.0209   0.86806583   -1096.8294    2227.4018 
22620000    288.00218     100529.9    2090.7095    0.8729606   -1169.3358     2049.105 
22630000    293.05672    101144.02     1797.922   0.86766023   -1191.2226    2083.7029 
22640000    288.02113    100722.35    1693.9278   0.87129264   -1164.0554    2054.5972 
22650000     295.5774    101123.78    1999.6927   0.86783392   -1090.8872    2212.2071 
22660000    292.08224    100925.08    1045.0095   0.86954249   -1154.7372    2109.2985 
22670000     292.6428    101098.15    1366.7486    0.8680539   -1142.8149     2127.485 
22680000    293.43517    101147.07    1101.7949   0.86763406   -1074.5422    2204.6125 
22690000    292.41927    101085.14    946.18939   0.86816566   -1153.4812    2114.3208 
22700000    294.04699    101247.06    1229.9219   0.86677721   -1157.2554    2128.7364 
22710000    290.92583    101345.78    1274.2053    0.8659329   -1127.1996    2123.9131 
22720000    287.69155     100740.1      1102.72   0.87113916   -1132.8487    2082.1208 
22730000    293.08552    100986.83    488.95698    0.8690108    -1198.556    2076.6914 
22740000    286.97735    101525.94    433.97803   0.86439624   -1112.4171     2094.571 
22750000    289.89751    101233.46    561.13641   0.86689366   -1085.5307    2154.0905 
22760000     294.7992    101172.91    716.26087   0.86741246   -1087.4122    2206.9857 
22770000    292.12681    101031.19    166.60514   0.86862926   -1212.8021    2051.7316 
22780000     291.9304    101043.82    765.88698   0.86852064   -1227.4036    2034.9352 
22790000    287.80796    100868.27    387.59257   0.87003221   -1090.8538    2125.4166 
22800000    290.21668    101703.28    589.75105   0.86288905    -1117.226    2125.9619 
22810000    293.23149    101392.67    923.23346   0.86553243   -1144.9362    2131.9424 
22820000    287.48073    101736.71    991.11366   0.86260551   -1163.8564    2048.7571 
22830000       297.26    100921.97    1151.2431   0.86956931    -1075.169    2246.7284 
22840000    286.82767    100937.06    1409.6772   0.86943927    -1111.078    2094.2376 
22850000    296.63656     100789.4    1589.8997   0.87071305   -1147.7413    2167.1891 
22860000    295.91497    101436.53    1399.5838   0.86515819   -1049.5126     2257.354 
22870000    296.15198    101492.32    1888.2748   0.86468258   -1097.5111    2212.0041 
22880000    292.71935    101391.16     1009.211   0.86554536   -1083.4135    2187.7418 
22890000    288.58882    101777.87    4.9510972   0.86225661   -1037.0818    2187.9147 
22900000    289.06391    101345.25    1365.4035    0.8659374   -1196.5734    2033.7322 
22910000    295.09834     101257.1    855.45842   0.86669126   -1172.8041    2124.9366 
22920000       293.49     100440.3    1854.4252   0.87373936   -1142.7445    2137.0229 
22930000    294.15494    100847.81    586.59478   0.87020874   -1133.3529    2153.8453 
22940000    292.84748    101708.31    749.08358   0.86284638   -1163.5767    2109.0105 
22950000    295.10891    101703.46    610.51899   0.86288751    -1136.325    2161.5339 
22960000    301.58452    101265.68    1482.0894   0.86661785   -1267.2112    2103.0129 
22970000    297.37754    100520.31    1539.4203   0.87304387    -1160.784    2162.4269 
22980000    296.91952    100561.39    808.47913   0.87268725   -1146.6068    2171.4857 
22990000    284.74449    100874.75    1270.8323   0.86997631   -1085.2013    2096.8346 
23000000    295.38213    100431.77     761.1185   0.87381359    -1175.009     2125.903 
Loop time of 1663.48 on 48 procs for 5000000 steps with 3750 atoms

Pair  time (%) = 549.251 (33.0181)
Bond  time (%) = 124.139 (7.46262)
Neigh time (%) = 264.425 (15.8959)
Comm  time (%) = 442.8 (26.6189)
Outpt time (%) = 0.0320718 (0.00192799)
Other time (%) = 282.835 (17.0026)

Nlocal:    78.125 ave 91 max 70 min
Histogram: 5 6 7 7 9 5 6 1 1 1
Nghost:    1323.85 ave 1349 max 1299 min
Histogram: 3 1 6 6 10 5 9 1 4 3
Neighs:    6396.98 ave 7464 max 5633 min
Histogram: 5 8 Generated thermo.dat
Done!
3 4 10 7 5 4 1 1

Total # of neighbors = 307055
Ave neighs/atom = 81.8813
Ave special neighs/atom = 6.26667
Neighbor list builds = 567537
Dangerous builds = 0
System init for write_restart ...

real	52m34.285s
user	0m0.045s
sys	0m0.025s
