LAMMPS (10 Feb 2015)
Read molecule SQL:
  30 atoms with 4 types
  29 bonds with 1 types
  34 angles with 1 types
  31 dihedrals with 2 types
  6 impropers with 1 types
Reading restart file ...
  restart file = 10 Feb 2015, LAMMPS = 10 Feb 2015
WARNING: Restart file used different # of processors (../read_restart.cpp:705)
  triclinic box = (112.628 112.628 112.628) to (157.372 157.372 157.372) with tilt (0 0 0)
  4 by 3 by 4 MPI processor grid
  3750 atoms
  3625 bonds
  4250 angles
  3875 dihedrals
  750 impropers
250 atoms in group endatoms
60 atoms in group samplechains
WARNING: New thermo_style command, previous thermo_modify settings will be lost (../output.cpp:665)
Neighbor list info ...
  1 neighbor list requests
  update every 1 steps, delay 0 steps, check yes
  master list distance cutoff = 10.3
Setting up run ...
Memory usage per processor = 2.18491 Mbytes
Step Time Temp Volume Press Density PotEng TotEng Pxx Pyy Pzz Pxy Pyz Pxz myT 
       0            0    295.73566    89584.282    6655.6296     0.979621   -1403.7239    1901.1389    6240.7974    7359.1945    6366.8967    450.76655   -395.46653   -1086.9774    295.73566 
    1000         1000    289.65394    89584.282    5866.4281     0.979621    -1448.641    1788.2583    6720.1519    5213.0414    5666.0909    -860.1391   -438.07492   -627.75231    289.65394 
    2000         2000    292.32785    89584.282    5994.1909     0.979621   -1351.0877    1915.6927    5699.1978    6463.5275    5819.8475   -637.17205   -499.88393   -602.60376    292.32785 
    3000         3000    289.69725    89584.282    5654.0925     0.979621   -1376.8693     1860.514    6453.2021    4812.0295    5697.0458   -1631.1118    480.89375   -241.77568    289.69725 
    4000         4000    296.38875    89584.282    5476.8226     0.979621   -1365.3172    1946.8439     4910.233    6367.8722    5152.3627      278.098   -112.44214   -404.61585    296.38875 
    5000         5000    288.71181    89584.282    6279.8677     0.979621   -1359.0874    1867.2835    6397.3669    6443.5741     5998.662   -491.50445   -361.09975    190.63648    288.71181 
    6000         6000    297.32408    89584.282     6125.346     0.979621   -1410.2933    1912.3202    6051.6721    6548.7076    5775.6583    -625.4002    700.95731   -270.38765    297.32408 
    7000         7000    290.57392    89584.282    6383.4579     0.979621   -1288.6742    1958.5059    6402.8271    5788.1052    6959.4413   -1799.9516    353.30754    284.54906    290.57392 
    8000         8000    294.42938    89584.282    6532.5574     0.979621   -1311.8236    1978.4415     5661.247     6409.952    7526.4733   -1697.6691    1158.5578   -615.09258    294.42938 
    9000         9000    290.40342    89584.282    6406.4916     0.979621   -1362.8962    1882.3785    5710.3287    6731.0038    6778.1422    -1275.718    418.89864    177.49431    290.40342 
   10000        10000    290.38401    89584.282    6699.5166     0.979621   -1259.1101    1985.9477    6442.0081    6874.8311    6781.7104   -1328.9813    270.54538   -118.58175    290.38401 
   11000        11000    296.24373    89584.282    7614.8823     0.979621   -1230.9268    2079.6137    7511.6839    8148.8878    7184.0751   -2340.1179   -417.21824   -405.25077    296.24373 
   12000        12000    290.17211    89584.282    6533.0061     0.979621   -1259.5806    1983.1093    6790.9941     6399.714      6408.31   -2016.2179    777.50062    173.28336    290.17211 
   13000        13000    299.68743    89584.282    7804.7528     0.979621   -1218.7168    2130.3072    7681.2504    7510.4515    8222.5566   -1904.5614    333.89934   -415.63787    299.68743 
   14000        14000    292.23117    89584.282    5878.0547     0.979621   -1228.9831    2036.7168    5995.4902    6392.0448    5246.6293   -2086.5933   -208.10034    41.691321    292.23117 
   15000        15000    290.22413    89584.282     6715.018     0.979621   -1152.6037    2090.6674    6824.3843    7981.2055    5339.4641    -1492.883    587.43499   -216.67848    290.22413 
   16000        16000    287.06188    89584.282    6602.9653     0.979621   -1157.0815    2050.8513    5793.3662     6488.684    7526.8455   -1948.2396   -192.83826   -775.36496    287.06188 
   17000        17000    303.89238    89584.282    7556.3282     0.979621   -1227.8975    2168.1171    8109.1864    7278.6732    7281.1249   -3243.6064    180.28657    140.16044    303.89238 
   18000        18000    295.27784    89584.282    7687.0442     0.979621   -1125.6575    2174.0892    7346.5656    8378.4935    7336.0734   -2075.0324    116.01196   -192.13336    295.27784 
   19000        19000    288.60329    89584.282    6208.5669     0.979621   -1077.8152     2147.343    6890.9307    5001.7986    6732.9714    -2140.317    100.66343    99.829524    288.60329 
   20000        20000    295.85208    89584.282    7258.6671     0.979621    -1141.748    2164.4157    7099.5644    6822.9849    7853.4522     -1729.01    36.317605    230.82665    295.85208 
   21000        21000    294.52589    89584.282    8541.8832     0.979621   -1021.2074    2270.1362     7812.725    9089.3569    8723.5678   -2661.6156    146.48139   -393.99357    294.52589 
   22000        22000    289.67872    89584.282    7505.4608     0.979621    -1024.576    2212.6001    8091.9867    7345.8293    7078.5664   -1844.4937   -24.185508    139.60097    289.67872 
   23000        23000    294.03478    89584.282    7411.4392     0.979621   -980.54451    2305.3108    7655.7836    7904.1236    6674.4103   -2202.2211    604.84289   -315.66648    294.03478 
   24000        24000    289.44416    89584.282    7625.8928     0.979621   -995.83972    2238.7152    8851.0096    8990.5111    5036.1575   -1601.9417     -444.164   -88.381018    289.44416 
   25000        25000    298.46483    89584.282    8299.4698     0.979621   -956.52388    2378.8375    8979.6606    7358.9889      8559.76    -2063.451    714.45372    333.32346    298.46483 
   26000        26000    295.04871    89584.282    8560.0903     0.979621   -943.61764    2353.5684    8393.7858    9098.1516    8188.3336   -2120.2157   -658.30185    376.14262    295.04871 
   27000        27000     290.7233    89584.282    8108.0353     0.979621   -958.98839     2289.861     8239.563    9074.1629    7010.3798    -1862.807   -105.46344   -735.28231     290.7233 
   28000        28000    291.78224    89584.282    8082.0674     0.979621   -856.14459    2404.5386    7753.7863    7916.0792    8576.3368   -2055.5009    130.33843    982.69784    291.78224 
   29000        29000     291.5462    89584.282    7499.4725     0.979621   -963.50459    2294.5408    7639.7397     7844.499    7014.1789   -1958.4322    -18.25608    597.09402     291.5462 
   30000        30000    292.90403    89584.282    7893.0047     0.979621   -868.76962    2404.4496    8423.8714     7349.385    7905.7576   -2023.6996    -102.3839   -94.967913    292.90403 
   31000        31000    289.97774    89584.282    8691.2076     0.979621   -829.38444    2411.1333    8070.8385    9615.6019    8387.1823   -1448.4642    138.36007    631.58702    289.97774 
   32000        32000    288.44978    89584.282    6136.5911     0.979621    -905.0031    2318.4396    5510.6749    6339.0449    6560.0536   -3061.6311   -108.14836    560.44518    288.44978 
   33000        33000    296.46237    89584.282    9024.2013     0.979621   -835.77013    2477.2137    9115.3985    9215.4634    8741.7421   -2026.6168    345.56517    602.40661    296.46237 
   34000        34000    294.26503    89584.282    7668.9167     0.979621   -904.97663    2383.4518    8212.6367    7633.8831    7160.2303   -2014.3833    619.39628    676.43816    294.26503 
   35000        35000    295.88153    89584.282    6990.6751     0.979621   -803.09686     2503.396     7685.537    7515.9634    5770.5248   -1877.3227   -687.71469   -235.74629    295.88153 
   36000        36000    290.50398    89584.282    8053.9473     0.979621   -857.03037    2389.3681     8418.217    8359.0368    7384.5879   -1715.5423   -328.11074    689.06815    290.50398 
   37000        37000    291.89505    89584.282    7441.7445     0.979621   -798.47277     2463.471    8209.6658    7269.3458    6846.2218   -1606.3085     52.64426    290.66036    291.89505 
   38000        38000    296.48573    89584.282     7561.552     0.979621   -819.82147    2493.4234    8050.6749    7607.9459    7026.0352   -780.48683    317.75803    17.970937    296.48573 
   39000        39000     300.9802    89584.282    7892.1968     0.979621   -898.86928    2464.6015    7499.8295    7754.4717    8422.2892   -1843.5521   -734.00785    241.76233     300.9802 
   40000        40000    292.67767    89584.282    8094.3184     0.979621   -825.32352     2445.366    8765.2673    7819.2989    7698.3891   -1827.6833   -115.42373   -310.15523    292.67767 
   41000        41000    293.69051    89584.282    7991.6936     0.979621   -763.63412     2518.374    7709.6621    8860.6337    7404.7852   -1215.8307    674.55619    740.65398    293.69051 
   42000        42000    294.11444    89584.282    8478.9522     0.979621   -885.31405    2401.4316    9407.0004    8450.4302     7579.426   -1768.7071    68.775824   -566.35113    294.11444 
   43000        43000    294.44249    89584.282    7366.4201     0.979621   -671.35464    2619.0569    6575.4869    7582.0218    7941.7516   -2680.6282    653.84251    486.28369    294.44249 
   44000        44000    285.04741    89584.282    8171.7766     0.979621   -873.28818    2312.1328    7987.2306    8229.8984    8298.2008   -1386.7923     609.4022    177.97439    285.04741 
   45000        45000    297.93464    89584.282    8276.2369     0.979621   -717.76639    2611.6702    8633.6212    8015.4756    8179.6139   -1609.6851   -1011.3984    203.23186    297.93464 
   46000        46000    295.54751    89584.282    7428.2206     0.979621   -812.32102    2490.4392     6326.095    7873.4793    8085.0873   -2213.2598   -158.22354    1019.1929    295.54751 
   47000        47000    288.94694    89584.282    8470.2193     0.979621   -764.21223    2464.7863    7733.4039    8798.4684    8878.7857   -1896.1846    178.98068   -20.874742    288.94694 
   48000        48000    304.40288    89584.282     7620.688     0.979621   -740.99565    2660.7238    7877.3276    7041.8677    7942.8688   -1344.9962    522.71948    439.32436    304.40288 
   49000        49000    290.81212    89584.282     7692.253     0.979621   -784.32347    2465.5185    7854.3864    7597.0769    7625.2956   -1107.5935    683.20037    205.27071    290.81212 
   50000        50000     290.9683    89584.282    7062.8179     0.979621   -739.49218    2512.0952    6697.4684    7435.9375    7055.0477    -1131.486    437.86181    656.15628     290.9683 
   51000        51000     297.3667    89584.282    7049.7018     0.979621   -685.84999    2637.2398    6514.6603    7184.9785    7449.4664   -1186.0774    759.80147   -36.684612     297.3667 
   52000        52000    290.84416    89584.282    8052.1509     0.979621   -780.82514    2469.3749    7784.3874    8134.8491    8237.2163   -872.61225    718.39147    -313.1686    290.84416 
   53000        53000    290.40269    89584.282    7749.1726     0.979621   -714.09381    2531.1728    7502.4253    7854.0783    7891.0141   -1936.7311    565.32264    447.04127    290.40269 
   54000        54000    296.65094    89584.282    7793.5053     0.979621   -762.13227    2552.9588    7749.3223    7176.0976    8455.0961   -1766.2906   -38.826894    11.047816    296.65094 
   55000        55000    295.24969    89584.282    7243.5604     0.979621   -736.52465    2562.9074    7054.7054    6395.5733    8280.4025   -2727.1889   -1099.2153   -53.891502    295.24969 
   56000        56000    292.33475    89584.282    8238.7478     0.979621   -845.60044     2421.257    7740.2987    8723.7435    8252.2013   -2298.1801   -102.59398   -128.78873    292.33475 
   57000        57000    296.18247    89584.282    7619.1726     0.979621   -638.50234    2671.3536    7281.3977    8725.2659    6850.8541   -1789.6725    104.07143    343.47731    296.18247 
   58000        58000    292.19447    89584.282    8158.6334     0.979621   -766.02655    2499.2633    8355.3587    8624.2019    7496.3397   -1741.5879   -604.56334   -133.80988    292.19447 
   59000        59000    299.69974    89584.282    7717.6269     0.979621    -628.5681    2720.5936    6617.7939    8795.5331    7739.5538   -2013.7765   -663.34242   -446.38515    299.69974 
   60000        60000    290.41851    89584.282    7633.8176     0.979621   -706.33049    2539.1129    7136.4658    7943.7457    7821.2414   -1586.7354   -275.98372    392.12774    290.41851 
   61000        61000    295.49056    89584.282    7718.1535     0.979621   -648.21912    2653.9047     7837.692    7273.9449    8042.8237   -1485.9892   -407.15083    461.63895    295.49056 
   62000        62000    289.04506    89584.282    6836.7429     0.979621   -675.88818    2554.2068    6392.1064    7345.8266    6772.2956   -1404.2822   -681.63262    128.62814    289.04506 
   63000        63000    290.88135    89584.282    7994.2477     0.979621   -637.81524    2612.8004    7311.5714    9116.4086    7554.7631   -995.09851     340.5456    332.44641    290.88135 
   64000        64000    289.25455    89584.282    7692.8298     0.979621   -694.31888    2538.1172    7923.0612    8374.1855    6781.2428   -1730.6464    357.04597    -426.4708    289.25455 
   65000        65000    289.08919    89584.282    7484.2551     0.979621   -575.44862    2655.1395    6892.0038    7561.6516      7999.11   -2358.0177     182.9443    448.16028    289.08919 
   66000        66000    293.45391    89584.282    7988.0174     0.979621   -657.01084    2622.3533    8288.3443    7476.7753    8198.9327   -1421.7965   -206.64532    425.89883    293.45391 
   67000        67000    290.48417    89584.282    6985.6764     0.979621   -599.08247    2647.0947    6983.1531    7435.0846    6538.7914   -1361.0564    -977.7129   -571.63175    290.48417 
   68000        68000    294.24437    89584.282    9251.1372     0.979621   -634.15285    2654.0447    9531.0642    8702.5091    9519.8382   -1921.4679   -223.09225    1316.3239    294.24437 
   69000        69000    295.42124    89584.282    8086.3969     0.979621   -564.42976    2736.9194     8224.611    7961.8126     8072.767   -1487.3431    75.288495    207.49694    295.42124 
   70000        70000    292.58579    89584.282    8514.6881     0.979621   -644.09849    2625.5644         8743    8005.4882    8795.5762   -2042.0056   -117.74476   -268.06951    292.58579 
   71000        71000    296.48041    89584.282    8989.2914     0.979621   -622.76462    2690.4208    9059.3176    8733.9293    9174.6272    -1490.689    281.89767    920.96817    296.48041 
   72000        72000    290.61392    89584.282    7686.0856     0.979621   -636.08603    2611.5411    7620.3118    8896.7713    6541.1735   -1731.3551    517.41792     640.8722    290.61392 
   73000        73000    296.07094    89584.282    8566.8271     0.979621    -580.3438    2728.2658    7472.7612    9422.8002    8804.9199   -1883.9621   -274.83255   -503.53793    296.07094 
   74000        74000     291.3854    89584.282    8408.4934     0.979621   -629.65356    2626.5948    9035.6504     8664.623    7525.2069   -1194.4514    296.77575    -163.3892     291.3854 
   75000        75000    293.18853    89584.282    8580.0135     0.979621   -644.32074    2632.0777    8790.8214    8404.0498    8545.1694   -1136.3743    501.50727   -29.731755    293.18853 
   76000        76000    300.16252    89584.282    8645.9913     0.979621   -629.89874    2724.4345    8935.6347    9307.7359    7694.6035   -1700.8646   -1139.8086   -115.89512    300.16252 
   77000        77000    288.99735    89584.282    7900.1697     0.979621   -646.03629    2583.5255    9365.2435    6745.8604    7589.4052   -1347.5651   -659.46028    391.62288    288.99735 
   78000        78000    295.45609    89584.282    8509.5499     0.979621   -512.48028    2789.2584    7878.3654    8735.9835    8914.3006   -2639.2103    781.90066    237.08354    295.45609 
   79000        79000    289.74735    89584.282    8239.9773     0.979621   -555.33717    2682.6059     7194.763    9433.7609     8091.408   -2113.3443   -88.855358    292.27217    289.74735 
   80000        80000    296.92974    89584.282    8201.9276     0.979621   -635.14928    2683.0574    8031.0944    7971.5111    8603.1772   -1296.2048    45.172062     442.9882    296.92974 
   81000        81000    295.04654    89584.282    9221.5221     0.979621    -561.7224    2735.4395    9179.9243    9167.8023    9316.8397   -1963.7801     840.6702   -769.04374    295.04654 
   82000        82000    289.41642    89584.282    8620.1533     0.979621   -570.07996     2664.165    8909.5712    8556.4212    8394.4674   -1757.5148    210.12044    366.64775    289.41642 
   83000        83000    297.89081    89584.282    8328.7534     0.979621   -532.29371    2796.6531    8263.2023    8018.3169    8704.7409   -864.74426   -412.98107    -489.0224    297.89081 
   84000        84000    288.02936    89584.282    8215.2706     0.979621   -588.01383    2630.7307    7145.1447    9118.0345    8382.6325   -667.24464   -584.02237   -4.5912067    288.02936 
   85000        85000    296.58476    89584.282    7801.8019     0.979621   -489.21405    2825.1375    8520.1639     7814.104    7071.1379   -1961.6017    38.905217     382.4847    296.58476 
   86000        86000    285.85033    89584.282    7583.3019     0.979621   -617.92349    2576.4702    8070.3999    7705.9174    6973.5885    -2151.218    572.31418    244.63134    285.85033 
   87000        87000    300.80814    89584.282    7637.9995     0.979621   -534.61885    2826.9293    8043.2878    7392.2316    7478.4792   -2543.2908    -327.4588     113.5493    300.80814 
   88000        88000    300.35207    89584.282    6543.9929     0.979621   -644.66072    2711.7907    6680.1261    6643.8215    6308.0313   -1686.2772    926.45455    13.017633    300.35207 
   89000        89000    288.94223    89584.282    8707.7915     0.979621   -542.82907    2686.1168    8149.2628    8767.8075    9206.3041   -652.42798    58.942055   -39.860404    288.94223 
   90000        90000    294.50995    89584.282    7436.3309     0.979621   -612.84249     2678.323    6706.9991    8663.7312    6938.2625   -1489.9378     900.7284    696.32609    294.50995 
   91000        91000    294.19449    89584.282    8374.6237     0.979621   -526.09495    2761.5453    8423.2579    7512.2925    9188.3207   -1774.3709    366.20466   -319.01134    294.19449 
   92000        92000    290.45864    89584.282    8427.3983     0.979621   -575.66399    2670.2279    8647.5598    8177.8673    8456.7678   -2111.3226    125.34005    292.90671    290.45864 
   93000        93000    298.58334    89584.282    7561.0264     0.979621   -624.18558    2712.5002    7175.4856    8058.7948    7448.7989   -1203.6623    345.75016     243.4413    298.58334 
   94000        94000    286.32943    89584.282    7828.7804     0.979621    -597.0747    2602.6729    8146.9997    7146.8367    8192.5049   -1043.9881     953.8912    57.390737    286.32943 
   95000        95000    298.60544    89584.282    7449.6296     0.979621   -508.99503    2827.9377    7945.8975    7336.5865    7066.4048   -1123.5571    160.44056   -499.03416    298.60544 
   96000        96000     290.6913    89584.282    7430.0882     0.979621   -613.81626    2634.6756    7640.9726    7119.6515    7529.6405   -996.35883    138.08566    661.03747     290.6913 
   97000        97000    289.36347    89584.282    7933.4806     0.979621   -518.80426    2714.8489    8040.3233    8318.6425     7441.476   -769.35505    233.36036    195.12578    289.36347 
   98000        98000    293.92997    89584.282    8584.5522     0.979621   -555.39389    2729.2903     7815.316    7925.3963    10012.944   -1105.7169    1243.2776    364.94675    293.92997 
   99000        99000    293.62649    89584.282    7562.3454     0.979621   -570.25637    2711.0363    7074.1826     7402.267    8210.5866   -1051.4615    408.54879   -228.47136    293.62649 
  100000       100000    298.41921    89584.282    7274.7383     0.979621   -666.13576    2668.7159    6414.0466    7456.1146    7954.0538    -1971.157    427.95273    554.29219    298.41921 
  101000       101000    296.69676    89584.282    8115.0619     0.979621   -558.95137    2756.6518    7410.1177    8303.2738    8631.7943   -1802.1507    17.841015    595.89144    296.69676 
  102000       102000    295.78579    89584.282    7371.7355     0.979621   -658.98017    2646.4429    8523.6776     6969.499    6622.0301   -841.86782   -2.6914601    1056.8948    295.78579 
  103000       103000    303.48622    89584.282    8117.7817     0.979621   -607.49413    2783.9816    7684.2171    7893.5898    8775.5382   -1734.0417    636.65501    311.09531    303.48622 
  104000       104000    290.19121    89584.282    7179.1248     0.979621   -505.66827     2737.235    6708.0335    7827.1154    7002.2255   -1775.5243   -139.35979    1427.3621    290.19121 
  105000       105000     289.2064    89584.282    7060.6926     0.979621   -628.76569    2603.1323    8107.3008    5699.0765    7375.7006   -1762.4704   -411.76795   -535.29419     289.2064 
  106000       106000    301.04274    89584.282    8077.7899     0.979621    -557.3608     2806.809    8332.9964    9115.2782    6785.0951   -836.99289    78.105085   -355.73527    301.04274 
  107000       107000    287.69713    89584.282    7871.5269     0.979621    -583.2659    2631.7659    7506.1644    8558.6439    7549.7724   -1721.9894    691.88692    356.84877    287.69713 
  108000       108000    291.21343    89584.282    6446.6406     0.979621   -544.67605    2709.6506    6346.3799    6374.0372    6619.5048   -1795.2632   -821.19873    -255.3259    291.21343 
  109000       109000    298.65794    89584.282    8905.0496     0.979621   -540.28841    2797.2311    8870.9739     8521.954    9322.2208   -1567.1117      832.227    100.06231    298.65794 
  110000       110000    291.29079    89584.282    7326.9361     0.979621    -627.0994    2628.0918    6696.5256    7634.1756     7650.107   -1293.3644   -192.76152    662.18031    291.29079 
  111000       111000     294.6591    89584.282    8189.8087     0.979621   -496.51609    2796.3161    8766.3844    8011.1106    7791.9309   -1990.1807     400.8267   -340.98185     294.6591 
  112000       112000    298.38831    89584.282    6573.0665     0.979621   -598.41189    2736.0944    5413.9628    7308.0533    6997.1835   -1865.0304    718.46855   -33.762001    298.38831 
  113000       113000    296.64385    89584.282    8057.1566     0.979621   -475.90329    2839.1086    8570.8568    8548.6935    7051.9193   -1402.1067     420.6992      344.958    296.64385 
  114000       114000    290.12857    89584.282    7756.2337     0.979621   -577.47766    2664.7256     7534.191    7774.9819    7959.5281   -2111.3771   -259.63549   -83.444764    290.12857 
  115000       115000    292.66034    89584.282    9426.9688     0.979621   -545.86605    2724.6299    9733.7285     9310.586    9236.5921    -1008.206    -218.7523     188.2865    292.66034 
  116000       116000    295.79707    89584.282    7498.2309     0.979621    -487.2928    2818.2562    8389.0484    6588.0808    7517.5635   -1037.3946    126.99798    355.91994    295.79707 
  117000       117000    286.72549    89584.282    7436.6871     0.979621   -551.48388    2652.6898    7284.6676    7231.9077    7793.4862   -2075.5304   -237.68985   -410.14284    286.72549 
  118000       118000    296.72257    89584.282    8190.7284     0.979621   -482.94945    2832.9421    8567.3544    7564.5277     8440.303     -997.376     153.6048    85.118057    296.72257 
  119000       119000    288.35491    89584.282    8698.6797     0.979621   -499.78474    2722.5978    8071.1663    9412.3324    8612.5403   -1751.2859   -235.98065   -27.799043    288.35491 
  120000       120000    293.04418    89584.282    7280.5083     0.979621   -454.95475    2819.8306    6184.3404    8543.4234     7113.761   -2728.6928   -895.84873   -370.60931    293.04418 
  121000       121000    301.37318    89584.282    7980.0071     0.979621   -551.41685    2816.4456     8288.816    8199.0263    7452.1791   -1647.3234    219.81399    118.32232    301.37318 
  122000       122000    291.24692    89584.282    7498.5912     0.979621    -459.2771    2795.4238    6581.8628    7760.8262    8153.0847   -1362.2961    535.54007   -91.894237    291.24692 
  123000       123000    288.22638    89584.282    7518.0764     0.979621    -517.2006    2703.7456    7107.0825    7743.3285    7703.8182   -1473.2817    53.609477    270.47636    288.22638 
  124000       124000    297.05266    89584.282    7530.4826     0.979621   -516.47986    2803.1005    8337.5141    7642.2316    6611.7021   -1057.5267    -564.4643    -168.3008    297.05266 
  125000       125000    289.49853    89584.282    7282.5764     0.979621   -564.96127    2670.2012     6978.252     7259.664    7609.8133   -1637.9505    92.401796    753.81508    289.49853 
  126000       126000    291.40251    89584.282      8604.54     0.979621    -512.0347    2744.4049     8571.557    8620.6794    8621.3836   -1469.5871    433.05876    278.83564    291.40251 
  127000       127000    297.15062    89584.282    8015.5903     0.979621   -586.38851    2734.2865    6896.8873    9187.9173    7961.9663   -1061.7085    82.394044    428.34642    297.15062 
  128000       128000    289.40212    89584.282    7640.3088     0.979621   -496.49459    2737.5905    7240.8711    8079.0949    7600.9603   -1788.0184    158.67388   -336.48678    289.40212 
  129000       129000     287.8334    89584.282    7821.5125     0.979621   -574.85112    2641.7035    7694.0987    8260.6227    7509.8162   -718.92604   -126.01471    887.00629     287.8334 
  130000       130000    292.52661    89584.282    8564.3416     0.979621   -543.04234    2725.9592    7605.9915    9402.5661    8684.4674   -1420.3748    34.814314   -102.61609    292.52661 
  131000       131000    292.32097    89584.282    8004.5156     0.979621   -597.55789    2669.1456    8734.6108    7369.3756    7909.5604   -816.28029   -243.18181   -936.71641    292.32097 
  132000       132000    289.85227    89584.282    7804.1427     0.979621   -598.41634    2640.6993    8351.6114    7705.8287    7354.9879   -685.19055    654.08056    1059.5836    289.85227 
  133000       133000    291.14321    89584.282    6915.5845     0.979621   -512.96559    2740.5763    5928.6568    7048.2844    7769.8121   -1641.6422   -551.81505   -179.33031    291.14321 
  134000       134000    295.30939    89584.282    7204.9939     0.979621   -568.87793    2731.2213    7096.9757    7431.9259    7086.0801   -1616.8674    35.872129     -364.181    295.30939 
  135000       135000    289.61158    89584.282    7244.7607     0.979621   -600.07666    2636.3492    6165.1757    7464.4677    8104.6386   -1075.1839    103.80002    512.67312    289.61158 
  136000       136000    295.07137    89584.282    8133.9997     0.979621   -570.83892    2726.6004     8866.403     7995.556    7540.0399    -1527.412   -62.236886   -542.10982    295.07137 
  137000       137000    288.05732    89584.282    7800.5125     0.979621   -633.62669    2585.4303    6557.7653    8140.3631    8703.4092   -1698.9196   -28.900706    376.86521    288.05732 
  138000       138000    291.04139    89584.282    7330.9572     0.979621   -502.50169    2749.9024    6942.6122    7752.9676    7297.2917   -2197.3622    -53.93242    590.93063    291.04139 
  139000       139000    298.73632    89584.282     8133.499     0.979621   -532.70698    2805.6884    8322.4289    9017.0444    7061.0238   -1600.2841   -657.74732    1219.2169    298.73632 
  140000       140000     295.3932    89584.282    7114.1454     0.979621   -495.66237    2805.3735    6709.1473    6919.7506    7713.5383   -1910.4301    333.04185   -625.32627     295.3932 
  141000       141000    292.78793    89584.282     8230.611     0.979621   -652.30769     2619.614    7757.3251    8025.4615    8909.0465   -2001.3579   -115.95119    156.59941    292.78793 
  142000       142000    298.79923    89584.282     7682.241     0.979621   -460.85627    2878.2422    7520.7142    7490.4382    8035.5707    -1789.098     254.0183   -47.397734    298.79923 
  143000       143000    287.78281    89584.282    8665.8097     0.979621   -576.68308    2639.3062    8955.9372    9040.6652    8000.8266   -1350.8908    327.69586    544.58302    287.78281 
  144000       144000     295.6978    89584.282    7651.0497     0.979621   -488.54453    2815.8952    6799.3221    8039.6586    8114.1686   -1381.0856   -512.64608   -618.05371     295.6978 
  145000       145000    288.64357    89584.282    8325.6997     0.979621   -585.77402    2639.8343    8885.1341    8312.1728    7779.7924   -742.69349    633.38679   -575.09104    288.64357 
  146000       146000     297.0036    89584.282    7254.8613     0.979621   -542.32493    2776.7072    6754.8686    6716.7907    8292.9245   -2063.0751   -392.49904   -352.43902     297.0036 
  147000       147000    288.44804    89584.282     7703.542     0.979621   -528.06753    2695.3558    7516.6787    7620.9321    7973.0151   -1529.1578    -517.5185   -106.93052    288.44804 
  148000       148000    290.51672    89584.282    8327.4073     0.979621   -477.93502    2768.6058    7634.6256    9303.4131    8044.1832   -205.62402     978.5626    1284.5569    290.51672 
  149000       149000    290.15139    89584.282    9010.7621     0.979621    -455.9848    2786.4734    7717.3156    9562.7984    9752.1723   -1970.4164    205.55509   -301.77934    290.15139 
  150000       150000    291.31514    89584.282    7640.1068     0.979621   -622.49155    2632.9717    6594.8721    8639.7618    7685.6866   -966.04391    -516.5087    160.10213    291.31514 
  151000       151000    291.33751    89584.282    7814.6098     0.979621   -485.45622     2770.257    8177.3726    6869.7846    8396.6723   -1171.1518    14.514238   -320.67004    291.33751 
  152000       152000    293.15602    89584.282    7770.6464     0.979621   -509.43988    2766.5953    7717.9058    8165.3505    7428.6828   -1579.4197    437.74559   -213.23112    293.15602 
  153000       153000    290.54858    89584.282    8033.1647     0.979621   -530.64488     2716.252    6983.5551    8448.4565    8667.4825   -2125.4113    233.25077   -663.46216    290.54858 
  154000       154000    287.75288    89584.282    8574.0232     0.979621   -483.60672    2732.0481    8079.6521    8555.5031    9086.9146   -1736.0983    320.00668    -8.761359    287.75288 
  155000       155000    290.58655    89584.282    7893.0919     0.979621   -589.01265    2658.3086    6344.0748    8189.0121    9146.1888   -1269.0758    365.83168    409.46716    290.58655 
  156000       156000     295.1021    89584.282    7150.9964     0.979621   -539.94919    2757.8335    6626.6132    7274.5753    7551.8007   -1428.1705    379.22862     220.6059     295.1021 
  157000       157000     302.5061    89584.282    7617.7378     0.979621   -485.14438    2895.3785    6951.7292    7710.0148    8191.4694   -1860.3155    953.06015    927.14607     302.5061 
  158000       158000    286.35112    89584.282    8399.0045     0.979621   -615.03198    2584.9581    7444.0711    8725.6468    9027.2955   -1656.2229   -108.99776    1263.4703    286.35112 
  159000       159000    293.26293    89584.282    7924.1018     0.979621   -475.66191     2801.568    7612.0337    7999.1283    8161.1435   -1340.1973    51.538427     763.8779    293.26293 
  160000       160000     296.2575    89584.282    8516.5653     0.979621   -562.65664    2748.0377    8310.5159    8112.3927    9126.7874   -2296.5492   -649.05423     755.6004     296.2575 
  161000       161000    285.84756    89584.282    8548.3912     0.979621   -496.86939    2697.4933    8567.2324    8632.4734    8445.4678   -1694.6656    340.11426   -340.80187    285.84756 
  162000       162000    296.13858    89584.282    9213.4021     0.979621   -486.15703    2823.2085    8852.6122    9294.1685    9493.4256   -524.31439   -207.41475    375.48172    296.13858 
  163000       163000    290.45513    89584.282    8042.1076     0.979621    -540.9029    2704.9497    8039.8237    8098.7769     7987.722   -1653.6079    21.572561    41.294393    290.45513 
  164000       164000    294.32817    89584.282    7931.9911     0.979621   -520.43934    2768.6947    7136.5764    8004.3263    8655.0707   -1166.6939    40.751022     238.6281    294.32817 
  165000       165000    287.28482    89584.282    7187.6401     0.979621   -549.32488    2661.0993    6102.8936    7900.5365    7559.4901   -2040.4406    433.51929   -824.26839    287.28482 
  166000       166000    297.18502    89584.282     7221.083     0.979621   -541.35941    2779.7001    7057.0326    7758.6559    6847.5606   -929.32931      243.517    435.48544    297.18502 
  167000       167000    292.45326    89584.282    8234.6765     0.979621   -629.62424    2638.5575    7417.2654    8877.0247    8409.7394    -1290.777    612.87991    643.73432    292.45326 
  168000       168000    292.84239    89584.282    7153.1138     0.979621   -475.22884    2797.3016    6296.2181    7696.2049    7466.9183   -2486.5743    163.77528    262.96236    292.84239 
  169000       169000    288.96479    89584.282    8196.8842     0.979621   -584.52965    2644.6683    6658.4834    9518.6274    8413.5418   -1480.3457    589.33935    348.73556    288.96479 
  170000       170000    293.15885    89584.282    8498.2343     0.979621   -505.04609    2771.0207    7746.5427    8938.5229    8809.6373   -1638.3379    405.97509     125.5615    293.15885 
  171000       171000    291.13284    89584.282    8130.9851     0.979621   -514.38442    2739.0416    7357.3009    8843.1925     8192.462   -1326.0103   -666.82645   -330.39928    291.13284 
  172000       172000    300.61691    89584.282    7659.9117     0.979621   -536.04142    2823.3696    5932.3597    8317.3069    8730.0686   -2280.9357    627.78298     -720.157    300.61691 
  173000       173000     293.9757    89584.282    7875.6394     0.979621   -544.99502    2740.2002    6204.6924     8934.167    8488.0587    -1720.872   -85.441691   -428.65549     293.9757 
  174000       174000    295.19344    89584.282    8148.3562     0.979621   -609.33116    2689.4724    6736.3378    8400.6618    9308.0691   -1956.8629    27.226237   -1078.9968    295.19344 
  175000       175000    293.76951    89584.282     8284.543     0.979621    -413.1518    2869.7391    6994.5836    9086.7078    8772.3377   -1877.5742    430.78459    51.051124    293.76951 
  176000       176000    298.08827    89584.282    7718.7064     0.979621   -606.77542    2724.3779    7270.2718    8192.8995     7692.948   -1612.0775   -447.41825   -49.847943    298.08827 
  177000       177000    297.30159    89584.282    7629.7848     0.979621   -567.40659    2754.9556    7753.7448    7605.7213    7529.8883   -1435.5489   -338.70675   -146.71753    297.30159 
  178000       178000     290.9588    89584.282    7683.4812     0.979621   -519.75006     2731.731    6501.9756    8881.3543    7667.1136   -1610.0409    324.78391   -14.685952     290.9588 
  179000       179000    297.23672    89584.282    6670.6982     0.979621   -589.69256    2731.9447    6507.2178     7101.031    6403.8458   -1516.4589    484.82504     251.8883    297.23672 
  180000       180000    294.09221    89584.282    6641.7636     0.979621   -586.71102    2699.7861    6462.7379    6618.8258    6843.7271   -1648.5926    703.94106    312.29692    294.09221 
  181000       181000    294.17443    89584.282    6604.0884     0.979621   -590.89668    2696.5193    5661.8436    6917.7645    7232.6571   -2477.7177   -471.54755    750.61599    294.17443 
  182000       182000    289.95869    89584.282     7744.753     0.979621   -518.29089    2722.0139    6426.3939    8715.9424    8091.9228   -1857.1679   -613.05967   -1049.4545    289.95869 
  183000       183000    293.03707    89584.282    8048.8106     0.979621   -590.51634    2684.1896    7758.4899    8227.2159     8160.726    -340.1185   -279.45513    230.01197    293.03707 
  184000       184000    297.34263    89584.282    8230.2566     0.979621   -544.79504    2778.0258    8785.4955    8109.6749    7795.5994   -2043.1775    -314.7895    547.27482    297.34263 
  185000       185000    291.94198    89584.282    7334.7582     0.979621    -621.3816    2641.0867    7246.9986    7452.8389    7304.4371   -2327.7786    636.08839   -140.05018    291.94198 
  186000       186000    296.69823    89584.282    7335.2893     0.979621   -542.27514    2773.3445    6074.2987    7831.1948    8100.3745    -2328.877    82.374038    188.36953    296.69823 
  187000       187000    293.67102    89584.282    8521.5781     0.979621    -472.3224     2809.468    9022.0935    8079.6955    8462.9452   -1751.7092    261.02841    294.46336    293.67102 
  188000       188000     292.1485    89584.282    7678.9414     0.979621   -586.19272    2678.5833    7872.1229    7047.9498    8116.7514   -1489.5717    132.84009     482.7579     292.1485 
  189000       189000    298.43075    89584.282    7658.6319     0.979621   -539.16371    2795.8169     7465.357    7792.5421    7717.9967   -2464.1989    -133.0462   -282.89578    298.43075 
  190000       190000    288.32569    89584.282    6927.6171     0.979621   -586.55974    2635.4962    6771.8522    7135.1007    6875.8985   -1893.3743   -49.034511   -410.22557    288.32569 
  191000       191000    298.24727    89584.282    7884.8097     0.979621   -525.36359    2807.5667     7649.693     7121.562    8883.1742   -1996.3078   -1004.6476   -192.99668    298.24727 
  192000       192000    295.95284    89584.282    7386.6697     0.979621   -537.95335    2769.3364    7403.9005    7643.9258    7112.1828   -1002.7116    242.89615    31.180029    295.95284 
  193000       193000     296.8718    89584.282    7287.8206     0.979621   -592.84664    2724.7126    6984.6825     7765.276    7113.5032    -1135.169    235.98704   -213.91841     296.8718 
  194000       194000    291.56205    89584.282    7761.5161     0.979621   -530.60219    2727.6203    6888.2253     7848.481    8547.8422   -1517.9113   -291.37018    -285.4796    291.56205 
  195000       195000    290.68854    89584.282    7285.0725     0.979621   -550.73883    2697.7222    6329.9136     8827.832     6697.472   -1357.2439   -619.67613   -850.13701    290.68854 
  196000       196000    293.63313    89584.282    8157.8901     0.979621    -577.8323    2703.5346    8863.7614    7458.4154    8151.4936   -2304.7766     198.6233    -876.6082    293.63313 
  197000       197000    288.97842    89584.282    6862.7541     0.979621   -524.64356    2704.7067    6563.3598     7233.078    6791.8244    -2600.641   -751.94985    21.277553    288.97842 
  198000       198000    300.43593    89584.282    7749.9834     0.979621   -574.10526    2783.2833    7340.9645    9087.2177    6821.7678   -1734.8395    323.33232   -758.12381    300.43593 
  199000       199000    294.21669    89584.282    7973.4247     0.979621   -698.50307    2589.3852    7412.1828    8993.4142    7514.6772   -1425.0502   -208.40869   -471.81234    294.21669 
  200000       200000    292.29249    89584.282    7238.3254     0.979621   -546.36319     2720.022    6518.6324    7980.6203    7215.7234   -1680.7848   -594.30993    409.67161    292.29249 
  201000       201000    292.22216    89584.282    7740.5966     0.979621      -661.62    2603.9793    6575.8236    9000.2739    7645.6921   -1623.5026   -268.56659    110.73063    292.22216 
  202000       202000    297.19762    89584.282    7973.9222     0.979621   -556.72821    2764.4721    7772.6616    8894.6804    7254.4246   -1114.1795   -891.45158   -1096.1501    297.19762 
  203000       203000    290.79889    89584.282    7316.7452     0.979621   -641.12097    2608.5732    6916.2505    7503.4816    7530.5034   -539.60128   -76.811824   -198.92496    290.79889 
  204000       204000    289.96973    89584.282    7676.8247     0.979621    -560.6616    2679.7666    6979.9747    8184.3005    7866.1989   -2317.0381   -303.10926    312.46934    289.96973 
  205000       205000     290.6632    89584.282    8416.8923     0.979621    -544.3318     2703.846    7820.3414    8603.8797    8826.4556   -1029.9882    252.50518   -218.57798     290.6632 
  206000       206000    294.48947    89584.282    7508.6366     0.979621   -590.79755    2700.1391    6543.2085    8168.5309    7814.1705   -2151.0263   -479.62304   -586.78077    294.48947 
  207000       207000    293.00167    89584.282    8339.9679     0.979621   -553.17343    2721.1369    7413.2976    8525.1975    9081.4086   -1699.4273    96.778644   -192.46957    293.00167 
  208000       208000    290.76545    89584.282    7349.0645     0.979621   -665.35112    2583.9693    6559.9645    8029.3049    7457.9242    -2641.235   -283.87205    198.39815    290.76545 
  209000       209000    295.26129    89584.282    7005.9657     0.979621   -498.54591    2801.0158    6166.4489    8270.8694    6580.5786   -1240.9988    197.75432   -501.34157    295.26129 
  210000       210000    287.39052    89584.282    7700.9487     0.979621   -633.83535    2577.7701    6650.8588    8688.6748    7763.3125    -2230.561    -171.5845   -1169.2626    287.39052 
  211000       211000    298.94933    89584.282    7725.3812     0.979621   -590.01785    2750.7579    7327.1478    8920.7034    6928.2924   -1574.3958    446.73482   -457.45535    298.94933 
  212000       212000    291.92793    89584.282     7745.421     0.979621   -589.68773    2672.6235    7009.4282      8031.27    8195.5648   -1396.8128   -85.106285   -970.42826    291.92793 
  213000       213000    293.95748    89584.282    7261.8083     0.979621   -573.27731    2711.7143    5572.2121    7906.5808    8306.6321   -2579.0719   -403.87596   -66.938914    293.95748 
  214000       214000    293.11739    89584.282    7433.3663     0.979621   -637.15192    2638.4516    6755.4887    8318.7988    7225.8116   -1870.5435   -402.92792   -345.65734    293.11739 
  215000       215000    295.10592    89584.282    7376.6717     0.979621    -527.7827    2770.0427    6587.3849    8429.4018    7113.2283   -2200.2077   -229.55269    -302.2388    295.10592 
  216000       216000    287.01895    89584.282    7667.2433     0.979621   -571.59956    2635.8535    6693.1117    8017.0195    8291.5988   -2581.2897   -765.26282   -569.36796    287.01895 
  217000       217000    291.62566    89584.282    7202.3871     0.979621   -586.01383    2672.9195    5301.6021    8038.9761    8266.5831   -2033.7834   -278.24369   -682.77992    291.62566 
  218000       218000    288.97396    89584.282    7610.0994     0.979621   -569.73351    2659.5669     5915.226    8770.6027    8144.4695   -2541.0416   -18.054176   -787.39163    288.97396 
  219000       219000     294.0578    89584.282    7149.7402     0.979621   -571.10235    2715.0103    5897.7977    8371.0469    7180.3761   -1552.1674    533.88974   -456.54294     294.0578 
  220000       220000    293.10113    89584.282    8262.5217     0.979621   -520.23477     2755.187     7481.002    8368.8929    8937.6703   -1244.3393   -46.066585    503.94448    293.10113 
  221000       221000    287.02847    89584.282     7046.559     0.979621   -585.58875    2621.9707     6505.192    7355.4503    7279.0347    -2078.567   -447.38944   -327.54674    287.02847 
  222000       222000    290.96009    89584.282    7285.1474     0.979621   -601.59755     2649.898    6840.2189    7307.6672     7707.556   -1808.9619   -405.85996   -502.25048    290.96009 
  223000       223000    293.88617    89584.282    6687.5151     0.979621    -588.4623    2695.7324    5711.9127    8317.7231    6032.9096    -1398.526   -245.70547   -476.65972    293.88617 
  224000       224000    297.26491    89584.282    7067.0409     0.979621   -712.84851    2609.1038    5401.4491    8512.0942    7287.5795   -1076.5553   -550.36964   -938.21473    297.26491 
  225000       225000    296.38903    89584.282    6939.0438     0.979621   -559.26884    2752.8955    5599.2221    7308.9158    7908.9936   -1898.4703   -302.85866    313.05013    296.38903 
  226000       226000    289.68669    89584.282    7931.6964     0.979621   -646.29059    2590.9747    7173.6133    8598.1057      8023.37   -2471.3185   -282.04941    91.665419    289.68669 
  227000       227000    288.13664    89584.282    8005.2474     0.979621   -571.97142    2647.9719    6319.9109    8789.4275    8906.4038   -1284.8493   -454.91059   -150.68351    288.13664 
  228000       228000     297.7928    89584.282    8457.9895     0.979621   -609.14437    2718.7071    8656.3898    8621.5637    8096.0149    -459.3881   -130.82028   -533.42352     297.7928 
  229000       229000    293.57495    89584.282    8691.2753     0.979621    -732.8618     2547.855    8173.5641    8318.1699    9582.0917   -792.73741   -584.93571    662.38134    293.57495 
  230000       230000    299.18202    89584.282    7884.4945     0.979621   -612.47005    2730.9061    7713.9222    8209.7551    7729.8063   -2056.5005   -245.42967    183.92361    299.18202 
  231000       231000    296.29538    89584.282    7310.1973     0.979621   -672.76103    2638.3567    5497.1282    8336.3446    8097.1193    -1499.875   -502.30286   -153.61671    296.29538 
  232000       232000     298.4641    89584.282    7821.1578     0.979621   -606.07817    2729.2751    6811.8057    8008.8974    8642.7703   -1407.2579    607.68033    241.18678     298.4641 
  233000       233000    293.05385    89584.282    7713.3174     0.979621   -699.89561    2574.9978    6390.4052    8537.2542    8212.2928     -1178.61   -28.467158   -685.58978    293.05385 
  234000       234000    292.64199    89584.282    7256.1158     0.979621   -652.97984    2617.3111    7372.1202    7101.7743    7294.4528    -1313.842    112.63693     26.59077    292.64199 
  235000       235000    295.14962    89584.282    6902.5838     0.979621   -564.69226    2733.6215    6362.7248    7470.4924    6874.5341   -1912.4079    326.50261   -680.50196    295.14962 
  236000       236000    293.99037    89584.282    7186.2586     0.979621    -626.9524    2658.4067    6414.4051    7494.0456    7650.3251   -1726.4475   -337.22413    -727.6968    293.99037 
  237000       237000    296.10865    89584.282    8107.5845     0.979621   -638.15703    2670.8739    7059.2428    9301.1473    7962.3633   -1771.2849   -315.81998    307.84288    296.10865 
  238000       238000    293.56719    89584.282    5973.2034     0.979621   -698.19532    2582.4347     4968.338    7512.7534    5438.5188   -1890.6175   -41.859412   -21.104986    293.56719 
  239000       239000    292.65487    89584.282    7904.0168     0.979621   -673.61264    2596.8222    6953.6061    9408.0237    7350.4206   -1300.0094    -104.7703    206.11863    292.65487 
  240000       240000    291.16927    89584.282    6444.6294     0.979621   -687.99799    2565.8352    5883.5946    7454.6847     5995.609   -1406.8467    5.6172895   -724.90306    291.16927 
  241000       241000    290.83095    89584.282    7773.4357     0.979621   -648.55762    2601.4947    7182.6572    8281.3857    7856.2641   -1998.7452    432.81371   -266.62676    290.83095 
  242000       242000    292.74673    89584.282    7885.9975     0.979621   -602.19086    2669.2705    7032.7197    8619.1944    8006.0785   -1498.6918   -383.14577    461.35781    292.74673 
  243000       243000    292.01489    89584.282    8220.7444     0.979621   -641.42744    2621.8555    8168.2019     8564.743    7929.2884   -1186.3989    641.17972   -574.95173    292.01489 
  244000       244000    295.59478    89584.282    7506.1475     0.979621   -617.44316    2685.8453    7440.2187    8107.1797    6971.0441   -1746.4885  -0.99755665   -480.79693    295.59478 
  245000       245000    288.50359    89584.282    6702.6149     0.979621   -569.49385    2654.5502    5963.8055    7533.6248    6610.4145   -2335.7806   -230.39126   -707.84214    288.50359 
  246000       246000    295.95578    89584.282    8256.6935     0.979621   -645.44097    2661.8817     7559.525    8901.5415    8309.0139   -2159.1591     110.4131    73.853233    295.95578 
  247000       247000    290.81217    89584.282    7481.1658     0.979621   -629.84652     2619.996    7817.6659    7674.0418    6951.7898   -2225.1141   -835.53384    -635.2476    290.81217 
  248000       248000    294.30337    89584.282    7915.7179     0.979621    -614.3256    2674.5313    7733.8393    7801.0247    8212.2898   -776.82741   -189.12944   -108.75098    294.30337 
  249000       249000    290.76085    89584.282    7515.4248     0.979621   -622.92599     2626.343    6633.4053    7813.2701     8099.599   -2599.3842     253.1264     13.21505    290.76085 
  250000       250000    292.02147    89584.282    7385.8557     0.979621   -640.29075    2623.0658    6357.5868    8234.2634    7565.7167   -1188.0763    559.35787    501.65127    292.02147 
  251000       251000    293.92339    89584.282    8432.1275     0.979621   -634.76139    2649.8492    8057.0026    9417.9143    7821.4655   -1703.4048   -454.76312      8.65619    293.92339 
  252000       252000    289.80793    89584.282    7703.7597     0.979621   -620.81468    2617.8055    6485.5032    8342.5959      8283.18   -833.71232    300.74617   -275.13502    289.80793 
  253000       253000    297.85183    89584.282     8041.413     0.979621   -604.86713     2723.644    7488.1158    9001.3293    7634.7938   -1790.2803    1072.2635    162.74719    297.85183 
  254000       254000    286.25276    89584.282    8080.8414     0.979621   -590.50849    2608.3824    8328.4123    8390.7958    7523.3162   -1934.9713    468.60482    232.75946    286.25276 
  255000       255000    294.62007    89584.282    7681.9904     0.979621    -551.8361      2740.56    6968.5833    8779.3636    7298.0243    -1766.492   -256.42741   -276.62026    294.62007 
  256000       256000    297.77783    89584.282    7570.5864     0.979621   -639.54287    2688.1413    6904.2981    7543.8378    8263.6232   -3158.9943    706.89799    413.30915    297.77783 
  257000       257000    287.25257    89584.282    7176.5545     0.979621    -613.6834    2596.3804    5821.4482    7785.9016    7922.3138   -1990.5597   -14.041115   -235.09179    287.25257 
  258000       258000    299.74675    89584.282    7681.8676     0.979621   -595.47924    2754.2078    6828.4065    8197.9476    8019.2487   -2189.0822   -100.50398   -835.42561    299.74675 
  259000       259000    291.62457    89584.282    7792.8086     0.979621   -615.49715     2643.424     6037.983    9090.6053    8249.8375   -1615.7796    384.16109    469.59658    291.62457 
  260000       260000    291.44556    89584.282    6728.4111     0.979621   -546.43954    2710.4812    5744.9179    7211.7524     7228.563   -1848.7369   -97.172468   -706.13645    291.44556 
  261000       261000    292.41268    89584.282    9250.7635     0.979621    -519.6972    2748.0311    8106.9873    10005.858    9639.4456   -1519.1994   -837.68759   -85.233359    292.41268 
  262000       262000    294.46768    89584.282    8049.6083     0.979621   -583.35398    2707.3391    7323.0406    8273.7252    8552.0592   -1589.5986   -52.693547    394.31299    294.46768 
  263000       263000    292.15771    89584.282    7019.7977     0.979621    -549.7783    2715.1007    6488.3975    7278.1596     7292.836    -2005.224    183.18788      474.623    292.15771 
  264000       264000    296.42407    89584.282    8497.4674     0.979621   -596.99145    2715.5644     6721.684    9978.2807    8792.4375   -2383.8901   -310.46185    165.10736    296.42407 
  265000       265000    296.68508    89584.282    7944.6369     0.979621   -524.22374    2791.2489    6729.5016    8952.1275    8152.2816   -1274.1276   -214.18904    758.17145    296.68508 
  266000       266000    296.18033    89584.282    7806.7127     0.979621   -630.50788    2679.3241    7157.6473    7771.3276    8491.1633   -1746.4905    137.92524    563.80726    296.18033 
  267000       267000    295.57207    89584.282    7583.4945     0.979621   -558.51462      2744.52    6599.5274    8925.8402     7225.116    -1515.917    668.17806    422.92559    295.57207 
  268000       268000    295.56726    89584.282    7339.4939     0.979621    -572.5314    2730.4496    7334.9641    7458.7245    7224.7931   -1289.9058   -424.34426   -252.95431    295.56726 
  269000       269000    300.73552    89584.282    7330.0909     0.979621   -591.75467    2768.9819     5764.282    7983.4847    8242.5061   -872.63677     187.1327    387.68541    300.73552 
  270000       270000    294.57474    89584.282    7855.6427     0.979621   -590.43276    2701.4567    7411.5165    8036.7061    8118.7053   -1929.8146    995.33731   -162.33142    294.57474 
  271000       271000    299.24067    89584.282    8840.3723     0.979621   -548.94229    2795.0893    8218.6624    9095.2471    9207.2075   -1614.2202    150.07142   -44.512904    299.24067 
  272000       272000    289.22176    89584.282    8053.9229     0.979621   -681.06557     2551.004    7869.9046    7825.2315    8466.6326   -1625.1564    26.046012    499.01427    289.22176 
  273000       273000     297.6128    89584.282    7134.8934     0.979621   -524.34945    2801.4906    5901.9762    8266.4839      7236.22   -1207.5828   -259.53606    387.71464     297.6128 
  274000       274000    292.43921    89584.282    6806.9046     0.979621    -613.7623    2654.2625    5466.4409    7932.5773    7021.6957   -1943.7487    427.12034   -110.15803    292.43921 
  275000       275000    290.56825    89584.282     7741.701     0.979621   -610.27769    2636.8391    6416.0546    8030.4044     8778.644   -1722.8537    38.695339   -660.03893    290.56825 
  276000       276000    303.12394    89584.282    7553.1231     0.979621   -588.23478    2799.1925    7114.5821    8398.5831    7146.2042   -2109.1094   -508.00585   -286.62003    303.12394 
  277000       277000    286.40169    89584.282    8128.2113     0.979621   -531.29735    2669.2578    8101.2308    7879.2648    8404.1384   -1219.4465   -584.39843    721.32904    286.40169 
  278000       278000    295.03377    89584.282    7791.3049     0.979621     -546.859    2750.1601    5867.9832    9249.9336    8255.9978    -1008.706   -505.85641   -131.41687    295.03377 
  279000       279000    299.80874    89584.282    8418.4923     0.979621   -496.58178     2853.798    8342.5232    9331.6953    7581.2584   -1249.6562   -93.398917   -149.11851    299.80874 
  280000       280000    297.19504    89584.282    8105.1282     0.979621    -579.3673    2741.8042    7282.0608    8476.7536    8556.5704   -1617.7805    216.10283    450.52042    297.19504 
  281000       281000    291.51892    89584.282    7107.8731     0.979621   -481.38057    2776.3599    6960.5428    7536.2498    6826.8266   -1514.8163   -281.73844   -677.25965    291.51892 
  282000       282000    290.80076    89584.282    7514.4117     0.979621   -608.69314    2641.0219    6115.7819    8829.2817    7598.1714    -1954.685   -230.63722   -95.340782    290.80076 
  283000       283000     296.4989    89584.282    7274.7424     0.979621   -589.64961    2723.7425    6945.0996    7771.3306    7107.7971   -1144.8748   -531.61182    -399.3875     296.4989 
  284000       284000    293.23022    89584.282    7156.1905     0.979621   -554.36992    2722.4944    5648.3201    8163.9346    7656.3166   -1665.1947    118.57876    -770.8959    293.23022 
  285000       285000    292.69674    89584.282    8159.2861     0.979621   -573.60659    2697.2961    7869.9711    8210.4357    8397.4514   -1473.6358   -560.80669   -184.85345    292.69674 
  286000       286000    288.75099    89584.282    8049.7021     0.979621   -503.51046    2723.2983    7150.6494    8297.1182    8701.3387   -702.82492   -283.99982    279.10199    288.75099 
  287000       287000    290.17057    89584.282    7717.0597     0.979621   -578.76202    2663.9106    6121.8103    8283.9482    8745.4205   -903.15415   -52.728863   -541.56542    290.17057 
  288000       288000    294.16035    89584.282    7493.1261     0.979621   -526.26552    2760.9931    6500.3933    8735.3504    7243.6347   -1749.9429   0.93999804   -577.63323    294.16035 
  289000       289000    289.98248    89584.282    7233.2479     0.979621   -583.73226    2656.8384    5024.6092    8052.2622    8622.8722    -2138.594   -273.47915    64.536572    289.98248 
  290000       290000    293.65072    89584.282    6203.8551     0.979621   -564.30016    2717.2633    4585.5716    7417.5049    6608.4887   -1670.5121   -518.03071    476.34966    293.65072 
  291000       291000    295.25946    89584.282    8473.2968     0.979621   -503.65682    2795.8844     7819.114    9240.9354     8359.841   -1446.2587    85.168048   -198.60071    295.25946 
  292000       292000    292.97325    89584.282    8080.2603     0.979621   -581.74591    2692.2468    7715.7609    9267.7699    7257.2502   -1843.9229    1074.8965    -925.2007    292.97325 
  293000       293000    291.22743    89584.282    7860.6067     0.979621   -609.31217    2645.1709    6262.1911    8366.6093    8953.0198   -2223.8951   -197.87898   -475.24893    291.22743 
  294000       294000    293.11872    89584.282    8068.5335     0.979621   -486.52964    2789.0887     6807.371    8741.4198    8656.8098   -1392.8132   -359.68402   -883.08117    293.11872 
  295000       295000    294.79123    89584.282    8232.6005     0.979621   -574.08273     2720.226    7223.3938    9886.3828    7588.0248   -1040.3576    76.876609    423.89976    294.79123 
  296000       296000    288.97421    89584.282    8096.8879     0.979621   -572.87279    2656.4304    7010.8486    9422.1067    7857.7083   -1321.0676    196.17056   -544.18524    288.97421 
  297000       297000    292.05046    89584.282    7813.1364     0.979621   -455.30103    2808.3795    6479.4443    9187.9212    7772.0436   -1077.2267    177.87454   -208.85517    292.05046 
  298000       298000    285.38482    89584.282    8446.0211     0.979621   -557.14271    2632.0488    7908.3831    9154.9556    8274.7246   -1425.4521    82.312207    443.50493    285.38482 
  299000       299000    291.36069    89584.282    7858.5169     0.979621   -514.40321     2741.569    6408.5902    8678.2208    8488.7398   -1833.1126    35.666785    -132.6969    291.36069 
  300000       300000    299.39466    89584.282    7450.2486     0.979621   -625.13014    2720.6222    6121.8011    8781.1051    7447.8397   -1851.5802    188.87744    803.83381    299.39466 
  301000       301000    285.70387    89584.282    7644.7822     0.979621   -643.11575    2549.6412    6714.2822    8050.1667    8169.8978   -1741.8721    248.48306   -81.924458    285.70387 
  302000       302000    301.26519    89584.282    8005.6422     0.979621   -604.51304    2762.1426    7378.4728    8550.4533    8088.0005   -1802.9072   -32.735088    383.84555    301.26519 
  303000       303000    294.80366    89584.282    7567.3097     0.979621   -595.08187    2699.3658    5777.3379    9359.1184    7565.4728   -1540.9178    -156.7504    327.51828    294.80366 
  304000       304000    291.66008    89584.282    7754.2641     0.979621    -696.5495    2562.7684    6919.8021    8520.7516    7822.2387   -949.29051    736.60313     545.7574    291.66008 
  305000       305000    292.93353    89584.282     8592.309     0.979621   -527.07172    2746.4772    7342.0375    8875.5246    9559.3649   -1537.5699    45.104279   -135.33839    292.93353 
  306000       306000    297.37312    89584.282    8001.8434     0.979621   -565.17091    2757.9906    6847.7105    9195.5332    7962.2864   -1248.4621   -251.34636   -536.58416    297.37312 
  307000       307000     291.6468    89584.282    7741.1118     0.979621   -661.28875    2597.8808    6922.4009    8345.7191    7955.2155   -589.62932   -294.21273    430.91082     291.6468 
  308000       308000    294.25492    89584.282    8425.4693     0.979621   -510.29033    2778.0251    7752.1569    8928.7583    8595.4926   -1233.1937     811.1429   -2.3245963    294.25492 
  309000       309000    287.92061    89584.282    8037.1573     0.979621   -580.33279    2637.1964    7413.9982    8177.4481    8520.0256   -1624.6963    172.44561    742.54352    287.92061 
  310000       310000    295.49439    89584.282     7350.277     0.979621   -603.88495    2698.2817    4778.9818    9218.4725    8053.3768     -878.097   -277.76617    626.75381    295.49439 
  311000       311000    293.81717    89584.282    7755.1595     0.979621   -623.95101    2659.4726    6520.9673    9554.7317    7189.7796   -1326.1917   -542.11925   -957.70576    293.81717 
  312000       312000    285.74686    89584.282    8544.4446     0.979621   -518.71843     2674.519    7450.5354    8446.4556    9736.3429   -1712.7189    -104.4118    -491.0604    285.74686 
  313000       313000    291.77104    89584.282    8195.2028     0.979621   -561.82571    2698.7323    6849.6339    9668.9481    8067.0264   -1019.0771    73.613519   -592.63589    291.77104 
  314000       314000    288.90785    89584.282    8274.8085     0.979621   -555.29329    2673.2684    7555.9923    8063.0143    9205.4188   -1221.3138    179.62644   -79.466633    288.90785 
  315000       315000      294.018    89584.282    7217.8189     0.979621   -472.36797    2813.2999    5978.7824     8737.701    6936.9734   -2214.1406   -990.41597   -661.10445      294.018 
  316000       316000    289.73501    89584.282    7757.5382     0.979621   -574.30073    2663.5045    7184.2146    8606.9416    7481.4584   -830.85886    207.66477   -89.134806    289.73501 
  317000       317000    288.79046    89584.282     7474.317     0.979621   -573.63212    2653.6177    6532.2298    8499.0767    7391.6445   -1278.0407    326.63213    230.64897    288.79046 
  318000       318000    293.29771    89584.282    7657.6052     0.979621   -584.03646    2693.5821    7460.7524    8373.3847    7138.6784   -1510.8745     92.57223    -320.5765    293.29771 
  319000       319000    293.93165    89584.282    6775.1034     0.979621   -652.97079    2631.7321    5945.4084    7019.8379     7360.064   -1166.4814    328.86606    505.41239    293.93165 
  320000       320000    293.63272    89584.282    8485.9086     0.979621   -620.24438     2661.118    7459.8726    8903.0032    9094.8501   -2062.6979   -851.33777    136.90762    293.63272 
  321000       321000     293.0363    89584.282    8561.5349     0.979621   -678.46768    2596.2296    7035.3563    10672.525     7976.723   -883.47426    106.81527    288.67655     293.0363 
  322000       322000    296.11811    89584.282    7725.5907     0.979621    -469.6313    2839.5055    6848.1809    8345.9165    7982.6748    -2163.587    787.53887     662.0215    296.11811 
  323000       323000    286.76755    89584.282    7721.9117     0.979621   -579.13252    2625.5112    6668.5641    8263.3796    8233.7913   -1424.4036    47.973506     504.6086    286.76755 
  324000       324000    295.33335    89584.282    8343.1033     0.979621   -647.10684    2653.2602    7181.6321    9512.7785    8334.8993   -874.41985    186.77269   -418.47856    295.33335 
  325000       325000    305.22023    89584.282    8477.9649     0.979621   -713.96377    2696.8897    7803.9817    8405.3571    9224.5558    -1258.408    493.70318   -23.437428    305.22023 
  326000       326000    289.98785    89584.282    9122.5651     0.979621   -634.03787    2606.5928    8230.6325    8738.2861    10398.777   -1406.7733    246.17547    491.89253    289.98785 
  327000       327000     292.5196    89584.282    7972.3486     0.979621   -624.45745    2644.4657    6764.0933    8828.8436    8324.1089   -1688.3206    151.41974   -201.18969     292.5196 
  328000       328000     298.3772    89584.282    8435.6469     0.979621   -645.96692    2688.4153    7053.3221    10303.737    7949.8811   -703.62924    101.97445   -472.02894     298.3772 
  329000       329000    292.74293    89584.282    7412.4044     0.979621   -599.91744    2671.5014    6286.0549    8292.4764    7658.6818   -1528.6573    627.64238    294.67338    292.74293 
  330000       330000    289.90572    89584.282    6860.4701     0.979621   -588.27796    2651.4349    5518.4237    7406.3844    7656.6022   -1962.4523    232.25177   -70.460487    289.90572 
  331000       331000    298.34997    89584.282    7650.7713     0.979621   -661.74286     2672.335    7857.2625    9279.3051    5815.7463   -564.51891    102.94828    332.10289    298.34997 
  332000       332000    293.99575    89584.282    7352.3473     0.979621   -635.83111    2649.5882    5641.2898    8334.3163    8081.4357   -111.86173   -219.60019    130.39757    293.99575 
  333000       333000    286.15882    89584.282    7996.0487     0.979621    -666.6455    2531.1956    7280.6967    9147.8183    7559.6311   -2152.1412   -390.29255    42.427405    286.15882 
  334000       334000    298.41022    89584.282    7974.8942     0.979621   -615.26555    2719.4856    7354.5652    8483.0594    8087.0579   -1458.1193    276.01981    158.88744    298.41022 
  335000       335000     287.3319    89584.282    8480.5212     0.979621   -586.62987    2624.3205    8098.0591    8589.9195     8753.585   -855.68729   -321.58734    283.15745     287.3319 
  336000       336000    294.60853    89584.282    7413.5825     0.979621   -666.23289    2626.0342    6679.6414    8179.0972    7382.0089   -1117.2938   -1288.4236   -502.33643    294.60853 
  337000       337000    297.36231    89584.282    7677.1296     0.979621   -683.14657    2639.8942    6567.3643    9280.2073    7183.8174   -1865.9793    517.34339    91.135812    297.36231 
  338000       338000    289.48129    89584.282    7099.7606     0.979621   -585.64311    2649.3267    5749.8409    7700.6916    7848.7492   -1239.5699   -136.10471    315.89175    289.48129 
  339000       339000    292.18816    89584.282    7184.5653     0.979621   -639.56764    2625.6516    6503.6949    7346.1613    7703.8397    -1641.004   -19.884705    884.07541    292.18816 
  340000       340000    302.83658    89584.282    7549.5396     0.979621   -553.22206    2830.9939    6107.9836    8495.5846    8045.0506   -1419.3835    50.184972   -1174.9901    302.83658 
  341000       341000    291.56358    89584.282    7810.1096     0.979621   -655.61586    2602.6237    7756.1341    8037.4833    7636.7113   -1032.6651   -149.81022    565.10462    291.56358 
  342000       342000    295.26237    89584.282    8480.0316     0.979621   -607.39314    2692.1806    8190.1031    9055.5067     8194.485   -1511.1314    154.36645    286.42643    295.26237 
  343000       343000    297.69053    89584.282    7439.2679     0.979621   -619.79172    2706.9169    6688.9896    8021.2324    7607.5817   -900.05948   -364.18613    946.69038    297.69053 
  344000       344000    290.30785    89584.282    7937.6293     0.979621   -664.63783    2579.5689     6646.366     9290.951     7875.571   -597.86274   -447.40022      98.9755    290.30785 
  345000       345000    290.49426    89584.282    7689.7333     0.979621   -559.53942    2686.7505    7312.2875    7972.0564    7784.8561   -1279.4931    330.87628    -27.83206    290.49426 
  346000       346000    297.55782    89584.282    7474.5017     0.979621   -598.18025    2727.0453     7359.154    8202.4964    6861.8548   -1551.0382   -485.31831   -435.25987    297.55782 
  347000       347000    288.90284    89584.282    7412.8285     0.979621    -605.4885    2623.0172    6897.8395    8011.4444    7329.2017   -889.06968   -648.37033   -606.32673    288.90284 
  348000       348000    295.24011    89584.282    6484.9264     0.979621    -686.9443    2612.3808    5128.0109    7664.5478    6662.2204   -1586.0611    351.95247    -564.6501    295.24011 
  349000       349000    294.72255    89584.282     7393.223     0.979621   -553.50993    2740.0313    6788.8419     8842.007    6548.8202   -1966.9958   -381.73031    301.36468    294.72255 
  350000       350000    292.37658    89584.282    7187.4061     0.979621   -619.10271    2648.2222    7524.4081    7921.0142     6116.796   -1394.7273    10.089441    382.50763    292.37658 
  351000       351000    297.28879    89584.282    7502.1758     0.979621   -695.30189    2626.9173    6268.7083    8346.3678    7891.4513   -883.52359    103.31601    77.402439    297.28879 
  352000       352000    289.39573    89584.282    7208.1278     0.979621   -624.03817    2609.9755    5767.0338    8122.5853    7734.7642   -1297.3841    609.32615    423.03329    289.39573 
  353000       353000    292.59976    89584.282    7116.2377     0.979621   -626.57158    2643.2473    5666.2333    8062.2326    7620.2471   -1727.1283    963.92811    165.77578    292.59976 
  354000       354000    285.57362    89584.282    6598.5176     0.979621   -572.31484    2618.9866    4843.1902    7788.0981    7164.2644   -1855.2455   -165.40857   -741.29499    285.57362 
  355000       355000    291.89115    89584.282    7860.7065     0.979621   -577.67787    2684.2223    6816.3146    8043.7405    8722.0642   -2434.9719   -320.21446   -225.18278    291.89115 
  356000       356000    302.51931    89584.282    7975.9308     0.979621   -634.91747    2745.7531    6348.0674     9452.359     8127.366   -1826.6648    251.50517    275.49884    302.51931 
  357000       357000    287.37383    89584.282    7467.9553     0.979621   -599.38722    2612.0316    6353.9326    7685.3635    8364.5696   -956.19606   -106.53502   -87.113742    287.37383 
  358000       358000    298.23078    89584.282    6930.9691     0.979621   -620.71818    2712.0278    5543.7561    8228.4853     7020.666   -1977.6352   -194.05825   -258.34256    298.23078 
  359000       359000    292.86876    89584.282    7218.0454     0.979621   -651.65349    2621.1716    6960.6981    7361.7109    7331.7274   -1633.5562    -5.549346    150.16491    292.86876 
  360000       360000    295.28681    89584.282    8012.0787     0.979621   -652.29192     2647.555    7943.5782    7795.8729    8296.7849   -605.31816    483.17512    34.831409    295.28681 
  361000       361000    297.51188    89584.282    7988.3905     0.979621   -666.32248    2658.3896    7359.5608    9315.2881    7290.3225   -1694.8111    519.11059    661.22489    297.51188 
  362000       362000    294.21779    89584.282    7595.1087     0.979621   -651.62628    2636.2743    7219.3159     8558.767    7007.2432    -1302.647   -307.13079   -353.32471    294.21779 
  363000       363000    300.44231    89584.282    7588.7039     0.979621   -712.45284    2645.0071    7067.2876    8236.1659    7462.6582   -1432.9805    300.57524    560.42551    300.44231 
  364000       364000    293.83429    89584.282    8700.6822     0.979621   -641.20039    2642.4145    8242.3423     9657.224    8202.4804   -567.27266    149.93476    -307.3436    293.83429 
  365000       365000    292.39905    89584.282    7907.3831     0.979621   -719.58021    2547.9958    6602.2942    8915.1583    8204.6969   -1208.8073   -629.73108    427.53829    292.39905 
  366000       366000    303.82153    89584.282    8153.5336     0.979621   -643.43765    2751.7852    7421.2316    8923.4812    8115.8881    -1594.774   -977.88502    227.44165    303.82153 
  367000       367000    278.99153    89584.282    6730.4329     0.979621   -616.51199    2501.2343    5370.7148    8560.6427    6259.9412   -648.88279    465.21154   -29.898335    278.99153 
  368000       368000    293.34551    89584.282    7472.9114     0.979621   -665.42663    2612.7261    7433.4709    7647.9827    7337.2807   -774.80162   -737.05339   -153.90788    293.34551 
  369000       369000    298.29247    89584.282     8603.885     0.979621    -692.2453      2641.19    7883.4113    8769.9134    9158.3305   -892.32663   -498.10562    430.04755    298.29247 
  370000       370000    293.47414    89584.282     7112.413     0.979621   -656.03326    2623.5569    6357.0005    8497.0318    6483.2067    -1572.868    117.94589   -263.30903    293.47414 
  371000       371000    293.54738    89584.282     6987.197     0.979621   -708.90223    2571.5064      7269.48    7399.8971    6292.2138    -1046.445    253.65012    602.62261    293.54738 
  372000       372000    293.80644    89584.282    7991.5184     0.979621   -568.84538    2714.4583    7627.8053    8158.5084    8188.2415   -894.80342    119.61831    381.82445    293.80644 
  373000       373000    293.64031    89584.282     7111.166     0.979621   -679.05093    2602.3962    6647.4368    8331.2395    6354.8217   -1462.1751    32.314197   -292.03402    293.64031 
  374000       374000    294.16331    89584.282    8213.2102     0.979621   -716.37281    2570.9189      8426.13    7693.5762    8519.9243   -1247.9697   -771.49934   -1230.6015    294.16331 
  375000       375000    299.77664    89584.282    7514.1715     0.979621   -682.07461    2667.9464    7036.9674    7809.2052     7696.342   -805.18685    302.56377    -220.1905    299.77664 
  376000       376000    291.44391    89584.282    8009.7029     0.979621   -709.40598    2547.4962    8800.8402    7366.5049    7861.7636   -770.15147    317.89808   -423.89045    291.44391 
  377000       377000    295.23546    89584.282    7927.2266     0.979621   -678.09615    2621.1769    6554.4865    9421.2435    7805.9498   -2157.1301    227.98355   -933.80852    295.23546 
  378000       378000    288.75659    89584.282    7416.4043     0.979621   -613.26988    2613.6014    6870.9505    7161.5209    8216.7417    -1819.011   -336.06054   -193.32557    288.75659 
  379000       379000    293.08133    89584.282    8144.4827     0.979621   -723.40357    2551.7969    7489.8322    8720.1462    8223.4698   -1195.2594    90.479093   -90.664544    293.08133 
  380000       380000    301.24059    89584.282    8758.3046     0.979621   -627.43967     2738.941    7739.6486    9089.9316    9445.3336   -640.45809    442.87497   -379.47144    301.24059 
  381000       381000    284.58489    89584.282    6984.9211     0.979621   -720.47934     2459.773     5791.226    7716.9117    7446.6255   -1338.5024    93.382457    46.925467    284.58489 
  382000       382000    296.28836    89584.282    7918.9845     0.979621    -654.4936    2656.5457    7957.6235    8188.0433    7611.2865   -1850.2487   -850.76416    473.33923    296.28836 
  383000       383000    285.24568    89584.282    7667.8781     0.979621   -633.85327    2553.7834    7891.8508    6998.7432    8113.0404     -1678.36    236.31245   -1412.7889    285.24568 
  384000       384000    292.32992    89584.282     7889.756     0.979621   -670.69744     2596.106     7025.166    8061.4112    8582.6908   -1293.2128   -561.35186   -548.94488    292.32992 
  385000       385000    300.55026    89584.282     7174.285     0.979621   -696.62005    2662.0462    5467.9292    8120.7705    7934.1555   -1865.6444   -540.22119    982.51467    300.55026 
  386000       386000    292.18362    89584.282    8233.0339     0.979621   -792.52537    2472.6432    6877.5565    8339.6945    9481.8506   -1442.1932    277.42711    87.854485    292.18362 
  387000       387000    297.68837    89584.282    7930.4288     0.979621   -675.90393    2650.7806    7370.9133    7246.0863    9174.2868   -1396.1666    130.04554    264.77235    297.68837 
  388000       388000    296.78919    89584.282    8224.1302     0.979621   -734.23255    2582.4035    6494.1646    9187.5864    8990.6395   -1694.8859   -1084.9566   -869.93933    296.78919 
  389000       389000    293.93643    89584.282    7748.0885     0.979621    -654.6577    2630.0986    7426.6105    8581.4381    7236.2171   -787.76999   -308.07186    358.82067    293.93643 
  390000       390000    291.54477    89584.282    7784.8214     0.979621   -662.95624    2595.0731    7607.1433    8151.4343    7595.8865   -791.40205   -113.26693   -282.14843    291.54477 
  391000       391000    295.31203    89584.282    7861.5649     0.979621   -639.86167    2660.2671    6890.8742    8426.1779    8267.6425   -775.09697   -793.31168   -848.05805    295.31203 
  392000       392000    286.17888    89584.282    7714.0806     0.979621   -605.65802    2592.4073    7504.4411    7181.2063    8456.5944    -1298.612   -157.35533   -43.863498    286.17888 
  393000       393000    301.31155    89584.282    8512.4299     0.979621   -647.84627    2719.3275    7378.2064    8668.7487    9490.3345   -1654.2021    854.42196   -139.51858    301.31155 
  394000       394000    285.60994    89584.282    8296.4386     0.979621   -689.03989    2502.6675    7267.3717    9081.7553    8540.1889   -1300.8848   -713.98663   -533.84145    285.60994 
  395000       395000    294.95758    89584.282    7925.3907     0.979621   -604.89054    2691.2772     7288.137    9448.7962    7039.2388   -1496.9978   -162.71209    372.44915    294.95758 
  396000       396000    287.96738    89584.282    7238.0268     0.979621   -634.01748    2584.0344     6097.293     7556.706    8060.0813    -1900.484    411.40929   -488.82477    287.96738 
  397000       397000    292.77238    89584.282    8818.6132     0.979621   -669.21301     2602.535    8142.0941    9023.3372    9290.4084   -1611.3771   -97.222375    148.85812    292.77238 
  398000       398000    296.21742    89584.282    7966.3291     0.979621   -659.52313    2650.7234    7443.1838    8192.3481    8263.4554   -1280.7936    297.28171    19.924439    296.21742 
  399000       399000    295.57439    89584.282    7100.7589     0.979621   -715.59708    2587.4635    7008.9953    7000.0911    7293.1904   -1739.9537   -334.74972   -267.80357    295.57439 
  400000       400000    291.69728    89584.282    8181.4208     0.979621   -688.07259    2571.6611     7040.892    8111.0685     9392.302   -1576.0281    405.94946    190.10506    291.69728 
  401000       401000    296.71943    89584.282    8349.6881     0.979621   -698.51353     2617.343     7089.872    8456.2975    9502.8947    -618.3185    144.27206    541.92059    296.71943 
  402000       402000     297.2844    89584.282     8222.783     0.979621   -592.00155    2730.1685    8578.2766     8469.393    7620.6795   -1721.0981    393.47727    -347.5745     297.2844 
  403000       403000    294.54244    89584.282    7720.3309     0.979621   -715.05447     2576.474    6921.8583    8194.3528    8044.7817   -1011.7458    -144.3236    85.624766    294.54244 
  404000       404000    297.11317    89584.282    7290.1818     0.979621   -598.84962     2721.407    5940.0364     7781.771     8148.738   -1518.1273   -400.51385   -651.63448    297.11317 
  405000       405000    291.24366    89584.282    7570.4932     0.979621   -674.21924    2580.4452    6590.7146    7738.2027    8382.5624   -1022.0318    472.42155   -816.99627    291.24366 
  406000       406000    292.04289    89584.282    7892.4533     0.979621   -669.14531    2594.4506    7160.3413    8625.8394    7891.1792   -1468.1064   -235.19715    467.38723    292.04289 
  407000       407000     294.6404    89584.282    8182.8961     0.979621    -620.8602     2671.763    8137.6339     8381.806    8029.2483   -1004.7237   -213.53382    -153.6644     294.6404 
  408000       408000    288.73164    89584.282    7488.0601     0.979621   -736.77656     2489.816    6351.5054    8700.6509    7412.0241   -604.11463     184.8264   -378.57965    288.73164 
  409000       409000    294.17253    89584.282    7510.0276     0.979621    -616.2471    2671.1476    6509.7286    8552.5677    7467.7866   -914.74959    3.9797218    484.07994    294.17253 
  410000       410000    293.93611    89584.282    6934.9596     0.979621   -689.48006    2595.2727    5380.2312    7808.6311    7616.0165   -906.02779   -556.06522    1055.8249    293.93611 
[...]
10907000     10907000    296.63456    89584.282     8046.507     0.979621   -591.00035    2723.9077    6058.4733    9040.0277    9041.0201   -1492.8899    776.74472     227.0357     296.9342 
10908000     10908000    293.37687    89584.282    7779.9574     0.979621   -594.78758    2683.7157    6168.1083      8258.89    8912.8739   -1696.0414   -85.034712    202.84357    293.73157 
10909000     10909000    293.57422    89584.282    7588.8994     0.979621   -478.91307    2801.7955    6527.1721    8391.6209    7847.9052   -1116.8333     596.6674    673.04412    294.00868 
10910000     10910000    296.93883    89584.282    7584.8041     0.979621   -524.31498    2793.9934     5792.463    8162.5439    8799.4054   -601.20575    218.07186   -201.18251     297.1805 
10911000     10911000    286.96227    89584.282     7806.777     0.979621   -575.51279    2631.3069    6429.9161    9043.2201    7947.1949   -1056.0671    370.94252   -219.66786    287.34334 
10912000     10912000    293.47974    89584.282    6877.0493     0.979621   -555.50264    2724.1502    4646.3392    8166.8904    7817.9182   -874.44621    638.59667    282.91486    293.80567 
10913000     10913000    297.72835    89584.282    8077.9808     0.979621   -571.81539    2755.3159    6241.4832    8904.6408    9087.8185    -1711.049    241.69125   -165.17518    298.27271 
10914000     10914000    294.66389    89584.282    7675.1678     0.979621   -614.14867    2678.7371    6445.3322    8570.6005    8009.5708   -1673.1826     402.2531    960.13401    295.04382 
10915000     10915000    292.08907    89584.282    7513.0926     0.979621   -593.10068    2671.0113    6244.2631    8212.0138    8083.0009   -897.10062    310.58461   -271.93193    292.45331 
10916000     10916000    289.07758    89584.282    7756.5027     0.979621   -495.21973    2735.2387    6305.8738    9504.5795    7459.0548    -1921.941    474.21691    339.98512    289.62505 
10917000     10917000    291.07613    89584.282    7309.0043     0.979621    -618.8356    2633.9567     7473.111    7174.9456    7278.9561   -1873.4486   -389.46508   -520.82365    291.39738 
10918000     10918000    292.97414    89584.282    7680.0043     0.979621   -584.21899    2689.7837    6264.2811    8141.5728    8634.1591    -1514.734   -569.66787   -216.48156    293.37636 
10919000     10919000    293.30646    89584.282    7893.8151     0.979621   -546.58212    2731.1343    6804.4943    7986.1249     8890.826   -2499.0307   -590.34547    46.839655    293.89372 
10920000     10920000    291.64367    89584.282     7917.997     0.979621   -600.41073    2658.7239    6551.3565    8841.7317    8360.9029   -1460.0322    337.20189   -541.87498    292.09712 
10921000     10921000    296.43606    89584.282    7128.7829     0.979621   -537.28863    2775.4012    5374.0076    8671.7406    7340.6006    -1680.216   -241.00328    738.41894    296.61638 
10922000     10922000     297.3155    89584.282    7696.3835     0.979621   -677.29333    2645.2243    5284.7577    9346.3206    8458.0721   -1337.2557   -548.73014   -286.12297     297.6942 
10923000     10923000    296.54384    89584.282    8094.8819     0.979621    -636.1384    2677.7558    7761.1044    8753.9711    7769.5701   -1676.1027    10.387474    164.26585    296.86812 
10924000     10924000    295.57135    89584.282    7781.0359     0.979621    -604.0242    2699.0025    5631.5745    8944.6815    8766.8518   -1359.5762   -480.63522   -89.475103    295.94336 
10925000     10925000    291.13239    89584.282    7344.9066     0.979621   -654.43801     2598.983    5670.6922    8062.9122    8301.1154   -914.90377   -64.598349    592.96547    291.44128 
10926000     10926000    290.44785    89584.282    7894.3752     0.979621   -628.51073    2617.2605    7349.0173    8316.1215    8017.9868   -1216.6647    221.32436    6.0136043    290.82386 
10927000     10927000    295.73721    89584.282    7455.3998     0.979621   -594.55393    2710.3262     6100.064    8720.6057    7545.5297   -1791.4444    245.16846   -182.72563    296.17012 
10928000     10928000    292.47374    89584.282    7640.2104     0.979621   -589.47647    2678.9342     6985.458    9080.7676    6854.4056   -854.95955   -818.35722    145.99678     292.9251 
10929000     10929000    296.39863    89584.282    8825.4151     0.979621   -649.57299    2662.6986    8799.0937    8985.5436     8691.608   -1285.0726    285.79542    460.35407    296.66775 
10930000     10930000    296.12261    89584.282    7906.0666     0.979621   -598.40232    2710.7847     6750.225    8951.9297    8016.0451   -1227.1377   -361.89279   -507.20233    296.44188 
10931000     10931000    291.39524    89584.282    8245.6359     0.979621   -637.54045    2618.8179    7032.8531    8812.6826    8891.3721    -997.5516    404.35404    231.39008    291.76238 
10932000     10932000    292.04492    89584.282    7842.6046     0.979621    -605.4778    2658.1408    6736.6987    8554.4732    8236.6418   -1756.2234   -30.359058   -576.59305    292.44999 
10933000     10933000    294.26461    89584.282    8605.9472     0.979621   -646.11136    2642.3124    8463.6507    8584.5578    8769.6331    -968.1214   -326.70306   -207.41102    294.69125 
10934000     10934000     293.0443    89584.282    8118.4514     0.979621   -640.70489    2634.0818    8496.4248    7724.1922    8134.7374   -449.42932   -5.2251663    53.362686    293.44816 
10935000     10935000    292.08023    89584.282    7810.1326     0.979621   -646.95776    2617.0554     6340.325    8924.5713    8165.5015   -721.70446    404.49911   -92.979457    292.52359 
10936000     10936000    299.92167    89584.282    6998.9839     0.979621   -768.69186    2582.9498    6463.9243    7825.0637    6707.9637   -1415.4812   -339.91538   -75.615855    300.40612 
10937000     10937000    292.27626    89584.282    8178.6944     0.979621   -626.70789    2639.4959    8209.9554    8710.2884    7615.8395   -891.90718   -781.45756    -868.0014    292.57735 
10938000     10938000    287.19779    89584.282    6899.4037     0.979621   -698.83944    2510.6122    6034.7252    7019.4284    7644.0576   -900.00559   -527.10088    280.98953    287.50364 
10939000     10939000     291.1993    89584.282    8568.5678     0.979621   -582.09363    2672.0751    8151.6068    9214.7885    8339.3081   -1464.9888   -697.73216    775.44441    291.61401 
10940000     10940000    286.86494    89584.282    6435.5049     0.979621   -685.51981    2520.2122    5766.9657    6683.6991    6855.8498   -1263.7296    184.14265   -129.41798    287.26498 
10941000     10941000    301.28993    89584.282     8565.847     0.979621    -712.8741     2654.058     7190.726    8981.1932    9525.6217   -2170.4476   -54.048756    -160.2936    301.43935 
10942000     10942000    306.02957    89584.282     7440.618     0.979621   -701.11588     2718.782    6960.5821    7301.7168     8059.555   -1275.6057   -75.617166    168.48355    306.40468 
10943000     10943000    286.14854    89584.282    7206.2946     0.979621   -699.43563    2498.2906    6380.9458    7484.7147    7753.2232   -1834.9949     604.0422    583.28595    286.60407 
10944000     10944000    298.08527    89584.282    8010.4907     0.979621   -580.29813    2750.8218    7279.0466    8954.9116     7797.514   -1109.3901    487.74622   -349.25982    298.44598 
10945000     10945000     287.4036    89584.282    7066.5942     0.979621   -634.78211    2576.9694    6325.0642    6803.3704     8071.348   -1347.4766   -11.529601    378.10037    287.69499 
10946000     10946000    295.74273    89584.282    8064.8461     0.979621   -641.65898    2663.2829    7653.5799    7812.0401    8728.9184   -914.69551   -372.24575   -768.15525    296.05653 
10947000     10947000    292.15842    89584.282    7690.0454     0.979621    -643.1426    2621.7443    7689.1978    7766.3857    7614.5526   -1484.9674    433.02404    98.057006    292.47407 
10948000     10948000    289.12835    89584.282      7004.32     0.979621    -606.9821    2624.0436    6412.5646    7362.8887    7237.5067   -1092.9867   -209.41576   -296.25356    289.43942 
10949000     10949000    287.40062    89584.282    8385.3896     0.979621     -594.125    2617.5933    7741.0666     9511.108    7903.9941   -1527.1194   -267.35624   -177.83359    287.90869 
10950000     10950000    294.35633    89584.282    7619.4343     0.979621   -747.12226    2542.3265    6339.0464    8112.7812    8406.4753    -1691.684   -766.17107    158.83656    294.69798 
10951000     10951000    299.23143    89584.282    7532.3269     0.979621   -544.51828      2799.41    6809.4943    7092.1103    8695.3762   -2001.3924    325.05272    262.53494    299.58637 
10952000     10952000    295.67908    89584.282    7294.6985     0.979621   -667.44283    2636.7878    6840.8892    8447.0079    6596.1984   -1311.2464     150.8234   -480.98724    296.07237 
10953000     10953000    287.55988    89584.282      8063.44     0.979621   -597.22845    2616.2695    7103.6176    8356.7454    8729.9569   -1581.2271    502.38893    416.44864    287.92926 
10954000     10954000    302.38527    89584.282     7663.756     0.979621     -613.384    2765.7886    6822.4595    8295.4173    7873.3913   -1271.2925    545.35973   -255.88979    302.89986 
10955000     10955000    291.20418    89584.282    8573.7775     0.979621   -715.99072    2538.2326    8306.8389    9430.3561    7984.1374   -662.25299     357.2796   -376.32319    291.67405 
10956000     10956000    298.94835    89584.282    7557.5917     0.979621   -615.02893    2725.7359    7167.8228     8047.411    7457.5413   -1268.2589   -537.44342   -626.74889    299.40207 
10957000     10957000    293.26598    89584.282    7504.0105     0.979621   -562.59989    2714.6641    6796.5951    8097.2689    7618.1677   -1265.9174   -183.11851   -275.93789    293.82555 
10958000     10958000    286.97069    89584.282    6991.4218     0.979621   -767.72916    2439.1847    6488.6573    7817.0697    6668.5385   -1396.1491   -212.29154   -66.012762    287.27082 
10959000     10959000    294.10285    89584.282    7410.0023     0.979621   -529.66323    2756.9528    6433.2184    8309.9603    7486.8281   -1799.2314   -229.44501    404.37147    294.50626 
10960000     10960000    289.41759    89584.282    8333.1843     0.979621   -640.71129    2593.5467    7906.0278    8404.9886    8688.5365   -1039.4367   -84.570965   -473.48824    289.81175 
10961000     10961000    294.84543    89584.282    7391.6068     0.979621    -512.3474    2782.5671     6668.294    7745.5555    7760.9709   -1545.2018     35.82119    74.877296    295.26771 
10962000     10962000    289.18071    89584.282     7474.188     0.979621   -555.86546    2675.7454    5648.4774    8794.9639    7979.1227   -1170.3771   -18.306767   -64.923857    289.76009 
10963000     10963000    295.04061    89584.282    8970.8516     0.979621   -690.08366    2607.0119      8970.91    8732.9565    9208.6882   -1436.6316    94.289973   -372.24267    295.53745 
10964000     10964000    300.61835    89584.282    8379.5993     0.979621   -576.91087    2782.5163    8558.1018    9126.7872     7453.909   -826.62423   -108.18965    789.94757     301.0384 
10965000     10965000    288.96756    89584.282    8277.8091     0.979621    -635.0334    2594.1955    8569.5332    8451.0755    7812.8187   -278.39037    237.51046   -195.63676    289.37121 
10966000     10966000    291.22731    89584.282    8473.2777     0.979621     -568.984    2685.4977    8205.1827    9061.1843    8153.4662   -676.95252   -110.95567   -294.29047    291.67965 
10967000     10967000    290.60475    89584.282    6541.4733     0.979621    -563.8846      2683.64    6462.7984    7773.9728    5387.6486   -1119.4165   -404.23079   -311.01136    291.06532 
10968000     10968000    283.98698    89584.282    7830.0983     0.979621   -610.97965     2562.591    6479.8281    9782.0914    7228.3754   -1043.6021     228.9249   -460.02387    284.37226 
10969000     10969000    294.04813    89584.282    7332.8142     0.979621   -541.65794    2744.3466    5934.5667    8371.4117    7692.4642   -1778.8806    583.81973   -170.77572    294.45591 
10970000     10970000    294.13327    89584.282    8568.5197     0.979621   -631.04102     2655.915    7709.5891    9105.3643    8890.6058   -1707.1153   -498.69789    241.68315    294.52576 
10971000     10971000     286.0564    89584.282    6989.3627     0.979621   -545.26362    2651.4329    6321.6463     7097.779    7548.6627   -1187.1117    188.43967    314.73943    286.59499 
10972000     10972000    291.42668    89584.282    8489.1369     0.979621   -580.43661    2676.2731    7203.9871    9445.8507    8817.5729   -751.09933   -94.611896    -1130.901    291.90855 
10973000     10973000    292.38803    89584.282    7303.5876     0.979621   -584.66295    2682.7899    6441.3285    8740.9851    6728.4491   -1728.9258   -52.854256   -926.78918    292.61564 
10974000     10974000    295.63524    89584.282    7874.3953     0.979621   -617.29517    2686.4454     7861.406    8535.6252    7226.1547   -1414.2343    462.42472    491.57977    296.11215 
10975000     10975000    296.39201    89584.282    8065.7821     0.979621   -593.39731    2718.8003    7012.6787    9045.7341    8138.9334   -1736.4374    -866.6064    171.59135    296.75981 
10976000     10976000    292.52331    89584.282    7618.4232     0.979621   -549.91987    2719.0448    7179.0948    7464.1097    8212.0651   -1635.1857    448.96179    990.59419    292.86911 
10977000     10977000    293.75643    89584.282    7252.8467     0.979621   -633.32847    2649.4164    6943.7019    8091.5319    6723.3064   -1197.6276   -578.84212    165.53791      294.066 
10978000     10978000     294.8171    89584.282    8249.1633     0.979621   -571.57858    2723.0193    6495.4385    9505.2502    8746.8012   -1740.3084   -421.37129    826.65484    295.39171 
10979000     10979000    288.10729    89584.282    7764.0768     0.979621   -618.41874    2601.1966    7978.1384    8543.5482    6770.5437   -949.12649   -231.85047    192.03519    288.54247 
10980000     10980000    284.44883    89584.282    7253.1027     0.979621   -538.02393    2640.7079    6925.1691    7913.1041    6921.0349    -1166.216    560.19739    186.48314    284.79628 
10981000     10981000    297.75383    89584.282     7663.867     0.979621   -685.64901    2641.7669     6075.501    8370.0849    8546.0151   -1421.8109   -751.48857    376.82146     298.1183 
10982000     10982000    284.56493    89584.282    8332.4106     0.979621   -538.84098    2641.1883     7291.873     8395.332    9310.0268   -515.11313    -942.0063    393.89002    285.14084 
10983000     10983000    295.58893    89584.282      8269.59     0.979621   -619.44326    2683.7799     7170.448    9363.0569     8275.265   -1605.3143   -563.98606   -61.428094    295.91155 
10984000     10984000    288.02999    89584.282    8140.9793     0.979621   -659.95485    2558.7966    7774.8742    7942.1722    8705.8915   -1584.8856   -435.65932    381.87069    288.10054 
10985000     10985000    300.60276    89584.282    7742.2785     0.979621   -541.04857    2818.2044    5805.5294    8814.6785    8606.6276   -1436.3539   -388.05071   -249.73827    301.17062 
10986000     10986000    292.86505    89584.282    7044.8075     0.979621   -625.98372    2646.7999    7336.6572    7941.8396    5855.9257   -1086.1528   -88.089816    430.37419     293.3755 
10987000     10987000    289.18059    89584.282    7638.3139     0.979621   -592.52564    2639.0839    7298.5102     8342.772    7273.6594   -2307.0434     169.2311   -685.04374    289.77158 
10988000     10988000    293.27725    89584.282     7290.509     0.979621   -582.19644    2695.1935    6575.4467    8065.3892     7230.691   -2466.3972    516.54597    1101.4621      293.336 
10989000     10989000    294.69187    89584.282    8141.1938     0.979621   -629.02716    2664.1712    7340.7407    8744.0617     8338.779   -1445.5009     2.193213      114.638    295.16303 
10990000     10990000    296.91949    89584.282    8541.2561     0.979621   -583.55734    2734.5349      7126.82    9949.4687    8547.4795   -1618.1925    188.05163    427.61107    297.38649 
10991000     10991000    289.47211    89584.282     6983.862     0.979621    -590.9496    2643.9177    5822.0775     8246.421    6883.0874   -926.21555    734.08927    373.45674    289.71823 
10992000     10992000    296.01323    89584.282    8046.7134     0.979621   -634.45055    2673.5142Generated thermo.dat
Done!
stress
average  1299.3
square average  1.69093*10^06
number of blocks  100
variance  5.24357702336868510311
pxx
average  6933.03
square average  4.80883*10^07
number of blocks  100
variance  14.62703630268278236216
pyy
average  8428.67
square average  7.10494*10^07
number of blocks  100
variance  8.31987445818745512637
pzz
average  7907.14
square average  6.25294*10^07
number of blocks  100
variance  8.08518422795671366512
xx
average  2176.06
square average  4.73522*10^06
number of blocks  100
variance  .41380671816682725287
yy
average  2188.66
square average  4.79025*10^06
number of blocks  100
variance  .41718580992167027444
zz
average  2183.86
square average  4.76926*10^06
number of blocks  100
variance  .39370547367289675516
xx
average  5267.46
square average  2.77675*10^07
number of blocks  100
variance  14.61682195280492564569
yy
average  6753.45
square average  4.56161*10^07
number of blocks  100
variance  8.37442386077991636306
zz
average  6235.59
square average  3.88892*10^07
number of blocks  100
variance  8.13471075085033370727
pressure, stress.strain, ktensor, virial are all concatenated
averages computed will all accumulated data until now
    7322.1353    8642.9259    8175.0789   -1216.3331   -69.915416    -544.2873    296.34068 
10993000     10993000    294.80872    89584.282    8373.5602     0.979621   -539.50778    2754.9965    7589.5002    9341.7669    8189.4136   -554.05981   -202.60004    440.74527    295.20105 
10994000     10994000    291.65987    89584.282    8263.6839     0.979621   -600.20258    2659.1131    7689.7333    9158.7583    7942.5601   -894.38823    201.92309   -293.44223    291.96254 
10995000     10995000    292.09069    89584.282    7498.4711     0.979621   -603.80816    2660.3219    5876.2304    8435.3603    8183.8226   -943.58033   -225.39298   -436.28204    292.43162 
10996000     10996000    295.02957    89584.282    8129.5854     0.979621   -664.23895    2632.7333    7790.9756    8461.1806    8136.5998   -1475.5126   -382.20068   -394.57873    295.40474 
10997000     10997000    295.12414    89584.282     8136.901     0.979621    -593.7427    2704.2864    7095.4512    8643.1621    8672.0897   -1138.3996    509.11608    337.44751    295.67218 
10998000     10998000    298.58942    89584.282    7705.5385     0.979621   -626.28725    2710.4665    6844.0723    8605.9444    7666.5987    -713.4721   -634.00794    801.52048    299.05953 
10999000     10999000    286.41861    89584.282    7481.3002     0.979621   -532.89237    2667.8519    6548.8095    8344.2988    7550.7924   -1459.2483    238.33089   -349.31207    286.77044 
11000000     11000000    287.89205    89584.282     8106.579     0.979621   -611.35237    2605.8576     7195.137    7916.3855    9208.2144   -711.57662   -523.48871     3.048284    288.35923 
Loop time of 1595.36 on 48 procs for 5000000 steps with 3750 atoms

Pair  time (%) = 576.326 (36.1251)
Bond  time (%) = 104.682 (6.56163)
Neigh time (%) = 307.805 (19.2937)
Comm  time (%) = 424.233 (26.5917)
Outpt time (%) = 0.45598 (0.0285816)
Other time (%) = 181.859 (11.3992)

Nlocal:    78.125 ave 87 max 68 min
Histogram: 2 2 2 8 10 6 5 7 3 3
Nghost:    1421.9 ave 1447 max 1390 min
Histogram: 1 2 2 7 10 7 5 5 4 5
Neighs:    7229.33 ave 8201 max 6064 min
Histogram: 2 0 3 9 6 9 9 2 5 3

Total # of neighbors = 347008
Ave neighs/atom = 92.5355
Ave special neighs/atom = 6.26667
Neighbor list builds = 573822
Dangerous builds = 0
System init for write_restart ...

real	58m24.672s
user	0m0.058s
sys	0m0.172s
