LAMMPS (10 Feb 2015)
Read molecule SQL:
  30 atoms with 4 types
  29 bonds with 1 types
  34 angles with 1 types
  31 dihedrals with 2 types
  6 impropers with 1 types
Reading restart file ...
  restart file = 10 Feb 2015, LAMMPS = 10 Feb 2015
  triclinic box = (112.339 112.339 112.339) to (157.661 157.661 157.661) with tilt (-2.84217e-13 0 0)
  3 by 4 by 4 MPI processor grid
  3750 atoms
  3625 bonds
  4250 angles
  3875 dihedrals
  750 impropers
250 atoms in group endatoms
Resetting global state of Fix shear1 Style nvt/sllod from restart file info
Neighbor list info ...
  1 neighbor list requests
  update every 1 steps, delay 0 steps, check yes
  master list distance cutoff = 10.3
Setting up run ...
Memory usage per processor = 5.70601 Mbytes
Step dummytim Temp Volume Press Density PotEng TotEng Pxx Pyy Pzz Pxy Pyz Pxz myT molPE1 molPE2 molPE3 molPE4 molPE5 molPE6 
510000000      5.1e+08     287.9202    93093.952    3026.8769     0.942689   -1280.1822    1937.3424     3153.755    3115.5754    2811.3004   -438.11899    83.949718   -420.24609    287.92097   -4723.6703    1066.1692    1130.1284    1135.0452    112.14518            0 
510100000    5.101e+08    286.00631    93093.952    4374.3029     0.942689   -1269.5711    1926.5657    4109.2808    4276.7844    4736.8435   -1075.8314    -398.6927   -317.63572    286.00715   -4704.4446    1045.4425    1166.5039    1107.5266    115.40042            0 
510200000    5.102e+08    298.55372    93093.952     3836.934     0.942689   -1212.3107    2124.0441    3408.0963    4176.2289    3926.4767    -252.6711   -4.2696213   -169.35119    298.55424   -4700.9817     1068.529    1186.7764    1119.5799    113.78575            0 
510300000    5.103e+08    295.22868    93093.952    4784.1584     0.942689   -1237.0829    2062.1144    4656.6744    4445.2423    5250.5584   -789.90445   -48.256084   -499.82292    295.22819   -4696.3459    1045.3587    1144.6042    1152.1141    117.18596            0 
510400000    5.104e+08    286.29018    93093.952    4520.3025     0.942689   -1133.7359    2065.5731    3038.7688    4930.8873    5591.2514    -610.9977    790.10758    123.15199    286.28899   -4700.4583    1064.9663    1187.5116    1189.5094      124.735            0 
510500000    5.105e+08    299.31034    93093.952    4364.2737     0.942689   -1165.2899    2179.5202    3566.8192    4511.6599     5014.342   -525.01776   -205.10515    229.15772    299.30973   -4697.9224    1068.1101    1223.5038    1112.2851     128.7335            0 
510600000    5.106e+08    295.13196    93093.952    4479.6436     0.942689   -1227.4247    2070.6917    4110.5753     4979.578    4348.7776   -717.63715    379.59458   -393.01027     295.1328   -4723.8121    1078.9612    1173.3966    1125.7334    118.29619            0 
510700000    5.107e+08     285.7822    93093.952    3270.3626     0.942689   -1205.0893    1988.5431     3911.161    2615.7236    3284.2031    461.86923   -266.94567    2.9973725    285.78249   -4737.0139    1025.9511    1204.3349    1184.0734    117.56518            0 
510800000    5.108e+08    289.78927    93093.952    5393.4277     0.942689   -1231.2275    2007.1841    5789.6529    4577.9072    5812.7229   -783.23397   -93.355498     80.79948      289.787   -4704.3249    1099.5901    1135.4689      1125.39    112.64844            0 
510900000    5.109e+08    289.35008    93093.952     4175.269     0.942689   -1224.8339    2008.6697    3978.2231    3978.7888     4568.795   -255.32334   -933.66827    217.64795    289.34995   -4705.7891    1068.9276    1170.3912     1141.058    100.57844            0 
511000000     5.11e+08    298.90268    93093.952    5238.1546     0.942689   -1225.2838    2114.9706     4900.617    5382.6756    5431.1713   -342.38555   -33.746524   -787.08228    298.90237   -4732.8191    1072.8722    1172.2889     1148.587    113.78716            0 
511100000    5.111e+08    293.78712    93093.952     3535.467     0.942689   -1193.0285    2090.0594    2640.8883    3939.9469    4025.5656   -1288.6004   -409.77685   -423.39904    293.78533   -4731.0062    1083.1997    1177.0117    1164.2084    113.55787            0 
511200000    5.112e+08     301.6463    93093.952     4293.932     0.942689     -1204.65    2166.2646    4272.3965    4905.2538    3704.1457   -307.68548   -466.32539    1219.3604    301.64549   -4713.7516    1049.9346    1149.8114    1199.8192    109.53638            0 
511300000    5.113e+08    289.84314    93093.952    4209.3747     0.942689   -1131.6885    2107.3251    4563.7868    4505.6166    3558.7207   -38.497434   -631.07962    368.06835    289.84259   -4752.0601    1142.6122    1224.3444    1140.1763    113.23866            0 
511400000    5.114e+08    287.89103    93093.952    3811.1379     0.942689   -1266.0107     1951.188    4353.1792    3571.5796    3508.6547     394.6176    332.60927   -319.45796    287.89239   -4752.4831    1032.5988    1178.1208     1153.584    122.16873            0 
511500000    5.115e+08    291.53169    93093.952    3908.0427     0.942689   -1259.8455    1998.0378    2882.5045    4848.8366    3992.7869   -409.06501    350.12348    173.43693    291.52983   -4723.2697    1048.9767    1160.6721     1148.255    105.52035            0 
511600000    5.116e+08    287.65985    93093.952    2739.5736     0.942689   -1171.1138    2043.5014    1759.8916    3036.9657    3421.8635   -730.73361   -3.4904172    559.90794    287.65933   -4718.4922    1103.1323    1168.2251    1164.9453    111.07571            0 
511700000    5.117e+08    287.73743    93093.952    4343.6909     0.942689    -1226.889    1988.5932    4729.0069    4575.9387     3726.127   -403.90745    163.42664   -434.46435    287.73733   -4701.8055    1070.5069    1133.6958     1149.307    121.40674            0 
511800000    5.118e+08    301.24165    93093.952    5016.2727     0.942689   -1205.5793    2160.8132      4908.13    5265.8642    4874.8241   -186.19913    -710.8613   -304.89216    301.23952   -4714.0571    1101.2982    1140.2078    1153.9531    113.01875            0 
511900000    5.119e+08    299.91034    93093.952     3834.896     0.942689   -1219.2277    2132.2874    3881.8852    4416.7847    3206.0182   -345.75876   -446.17371    -39.80685    299.90926   -4684.9637    1035.9359    1137.4338    1180.5743    111.79189            0 
512000000     5.12e+08    296.48475    93093.952    4283.0256     0.942689   -1246.4908    2066.7432    3130.2803    5505.2322    4213.5644   -803.91218    350.38289   -915.50648    296.48577    -4697.797    1015.9848     1150.685    1176.4143    108.22218            0 
512100000    5.121e+08    292.87819    93093.952    4001.8925     0.942689   -1223.9253    2049.0052     3537.321    3926.6748    4541.6817   -50.319813    804.83468   -534.72254    292.87789   -4727.2389    1059.4185    1184.7977    1148.5548    110.54267            0 
512200000    5.122e+08    292.84857    93093.952    3236.1685     0.942689   -1164.1265    2108.4729    2577.6677    3402.0586    3728.7793   -1453.3255    172.21331     274.3822    292.84819   -4744.8441    1086.1296       1208.5    1176.0609    110.02715            0 
512300000    5.123e+08    289.10808    93093.952    3302.8466     0.942689   -1171.3246    2059.4747    3226.4972    3338.5867     3343.456   -153.13451   -35.848481   -154.58282    289.11023   -4718.7129    1069.9681    1178.3828     1182.136    116.90141            0 
512400000    5.124e+08     291.3084    93093.952    4577.6805     0.942689   -1186.9237    2068.4643    4402.8107    4822.2131    4508.0176   -96.819297   -555.16442    182.48562    291.30856   -4742.4724    1086.8041    1218.0335    1134.9322    115.77904            0 
512500000    5.125e+08    295.75443    93093.952     4724.481     0.942689   -1201.4718    2103.6008    5066.2668    4859.2282    4247.9481   -631.64601    194.76705   -904.43663    295.75496    -4742.645    1086.4212    1179.4635    1151.8222    123.46635            0 
512600000    5.126e+08    297.25943    93093.952    4982.6166     0.942689   -1240.1377    2081.7532    4205.9915    4922.5668    5819.2916   -161.80652   -358.82784    -119.1135    297.26106   -4703.2279    1083.2633    1202.8596    1064.0827    112.88452            0 
512700000    5.127e+08    295.98962    93093.952    4145.8468     0.942689   -1217.2251    2090.4757    3679.5101    4376.4359    4381.5945   -1471.4664   -644.44269    -214.0384     295.9881   -4733.4974    1041.7049    1210.2879    1158.5516    105.72785            0 
512800000    5.128e+08    290.54483    93093.952    4104.1242     0.942689    -1189.901    2056.9539    3447.2389    4441.3183    4423.8155   -896.34526    4.4360047    -64.05253    290.54437   -4705.0937     1060.561    1189.9066    1157.5228    107.20235            0 
512900000    5.129e+08    295.67564    93093.952    4686.1405     0.942689   -1210.7369    2093.4552    3790.3407     4758.146    5509.9348    -1041.562    284.86917     442.2083    295.67413    -4721.141     1096.966    1194.8665    1102.4109     116.1607            0 
513000000     5.13e+08    296.43303    93093.952    3586.6936     0.942689   -1227.3163    2085.3398    2443.9991    3817.9356    4498.1462   -958.54344    151.03632    159.24445    296.43161   -4692.9074    1106.9537    1181.4076    1071.0595    106.17036            0 
513100000    5.131e+08    295.94229    93093.952    3860.8823     0.942689   -1318.2375    1988.9344    3624.1953    4432.7347    3525.7169   -179.89874    42.345663   -56.662454    295.94124   -4751.5267    1062.5937    1173.4137    1086.9946     110.2871            0 
513200000    5.132e+08    293.26809    93093.952    4216.0848     0.942689   -1302.5289    1974.7586    4347.7651    4271.8561    4028.6332   -720.08348    347.23757   -230.06103    293.26741   -4728.3357    1037.8762    1210.5483    1062.4836    114.89867            0 
513300000    5.133e+08    292.79621    93093.952    4633.6563     0.942689   -1223.5778    2048.4366    4514.9733    4006.6381    5379.3574   -986.40839    243.89409   -335.80177    292.79776   -4711.6879    1070.7692    1181.1866    1125.2383    110.91605            0 
513400000    5.134e+08    291.36854    93093.952    4452.9088     0.942689     -1191.89      2064.17    4411.2204    4903.8454    4043.6607   -374.11698   -155.26925   -695.30375    291.36701   -4704.7773    1084.7108    1163.8544    1149.4413    114.88081            0 
513500000    5.135e+08    289.89913    93093.952    4097.2645     0.942689   -1225.5713     2014.068    3914.8272    4433.4675    3943.4987   -1842.4326   -144.13036   -866.60288    289.89915   -4683.6987    1067.7048    1132.9304    1143.3139    114.17836            0 
513600000    5.136e+08    287.55234    93093.952    4098.9457     0.942689   -1288.2862    1925.1276    3048.4616     4555.252    4693.1236   -335.19602    140.57763    -458.7798    287.55333   -4737.7998    1061.0112    1179.9625    1098.8182    109.72175            0 
513700000    5.137e+08    298.63329    93093.952    3661.5502     0.942689   -1106.9376    2230.3063    2218.3952    3859.3368    4906.9185   -553.28252    -623.4856    311.31778    298.63183    -4687.253    1094.3244    1215.3968    1153.9902    116.60396            0 
513800000    5.138e+08    295.21487    93093.952     3765.465     0.942689    -1208.377    2090.6659    3329.1105    4306.9425    3660.3422   -747.57896   -632.93943   -1137.4091     295.2148   -4739.3811    1056.2445    1210.1311    1150.4413    114.18716            0 
513900000    5.139e+08    289.52078    93093.952    4090.8848     0.942689   -1207.9882     2027.423    4066.7389    4055.8851    4150.0303    -107.8192    219.43712    -373.4709    289.52177   -4720.1528     1065.821    1201.6396    1139.7329    104.97113            0 
514000000     5.14e+08    290.68735    93093.952    3480.8236     0.942689   -1200.1517     2048.296    3037.9924    3163.0741    4241.4042   -510.25628   -536.13932   -514.75588    290.68789    -4732.261    1042.7296    1216.8061    1149.5608    123.01276            0 
514100000    5.141e+08    285.93205    93093.952    3888.0206     0.942689   -1218.3623    1976.9447     3455.139    4560.1567     3648.766   -608.96484   -60.859378    208.02609    285.93229   -4713.5387     1081.791    1195.4754    1107.4699    110.44008            0 
514200000    5.142e+08    294.16149    93093.952    3956.0466     0.942689   -1242.7226    2044.5488    3068.0171    3916.4939    4883.6287   -718.21453     762.7382   -319.67962    294.16109   -4712.2417    1043.9382     1167.627    1141.5956    116.35831            0 
514300000    5.143e+08    302.14458    93093.952    5190.5433     0.942689   -1300.6029      2075.88    4577.3812    5580.4747    5413.7742   -596.30997    377.53276    274.99663    302.14441   -4741.1896     1090.632    1164.2383    1071.9105    113.80581            0 
514400000    5.144e+08    287.27901    93093.952    3870.6736     0.942689   -1283.7171    1926.6422    3595.6226    4218.1969    3798.2013   -382.28812    786.50264    158.45231     287.2799   -4715.0582    1031.8739    1155.8994    1133.8185    109.74929            0 
514500000    5.145e+08    295.88545    93093.952    3919.2474     0.942689   -1306.9395    1999.5973    3917.8381    3665.3942    4174.5099    176.95932   -254.89873   -265.63386    295.88667    -4704.359    1040.9972    1134.6018    1106.3279    115.49259            0 
514600000    5.146e+08    293.40328    93093.952    3435.1272     0.942689   -1233.6476    2045.1508    2853.4869    3618.0463    3833.8483   -790.26411    131.77019   -896.59435    293.40343   -4748.2003    1060.4936    1182.4954    1152.9405    118.62328            0 
514700000    5.147e+08    295.53375    93093.952    4006.7382     0.942689   -1185.8329    2116.7736     3358.683    3786.3352    4875.1965    -330.8585    -575.2536   -315.47604     295.5331   -4714.7021    1101.7869    1184.7911    1127.6645    114.62665            0 
514800000    5.148e+08    297.22363    93093.952    4423.5423     0.942689   -1204.0838    2117.4072      4137.32    4186.0952    4947.2117   -143.88117    824.19366    -279.0734    297.22397   -4742.4733    1088.8469    1184.5445    1149.0378    115.96021            0 
514900000    5.149e+08    287.71412    93093.952    3963.3616     0.942689   -1248.4741    1966.7475    4362.6342    3876.2688    3651.1819    109.34465    350.10708   -79.052846    287.71563   -4748.9537    1068.6748    1212.0117    1104.3397    115.45345            0 
515000000     5.15e+08    293.70738    93093.952    3448.6816     0.942689   -1227.6295    2054.5673    2681.3483    3598.0068    4066.6897   -736.68858    148.72481    656.49039    293.70738   -4706.2279    1082.5821    1178.8852    1103.6736    113.45762            0 
515100000    5.151e+08    295.24578    93093.952    4852.9756     0.942689   -1321.0807    1978.3077    5005.6626    5506.4663    4046.7978    90.900021    204.88843    157.59216    295.24557   -4751.9761     1048.611    1166.8113    1105.9988    109.47438            0 
515200000    5.152e+08    294.30088    93093.952    3543.6805     0.942689   -1281.0352    2007.7939    2212.2248    3968.5536    4450.2631   -802.00423    21.797444    137.48336    294.30116   -4723.4063    1038.0196    1158.6323    1136.0706    109.64872            0 
515300000    5.153e+08    299.59289    93093.952    3464.3925     0.942689   -1199.1617    2148.8059    1947.2542    4780.3473    3665.5761   -559.49182   -511.28011   -3.3187795    299.59157   -4704.9936     1070.411     1210.327     1111.791    113.30285            0 
515400000    5.154e+08      296.884    93093.952    4351.4706     0.942689   -1174.0452    2143.6503    3528.1554    4969.1039    4557.1525   -597.73981   -564.39907     334.1967    296.88281   -4747.4439      1097.18     1230.641    1127.8695    117.70826            0 
515500000    5.155e+08    290.18024    93093.952    3826.7994     0.942689   -1228.1843    2014.5964    3229.7378     5074.515    3176.1454   -563.44132    539.03835    26.310412    290.18137   -4714.7087    1037.0859    1237.8582    1099.4798    112.10042            0 
515600000    5.156e+08    295.03165    93093.952    4161.8072     0.942689   -1149.3495     2147.646    4104.6795    4245.2419    4135.5003   -1099.8513     111.9559    800.88506    295.03213   -4717.0517    1121.8868    1156.3059    1173.1018     116.4077            0 
515700000    5.157e+08    293.81351    93093.952    4133.1174     0.942689   -1222.2039    2061.1788    4053.0495    4131.2466     4215.056    -658.5835   -237.17098   -374.43707    293.81405   -4713.9683    1053.6329    1199.0865    1126.5344    112.51057            0 
515800000    5.158e+08    290.15755    93093.952    4474.6232     0.942689   -1277.5803    1964.9469    3047.6411    5804.6159    4571.6126   -923.71255   -178.11891    510.63503    290.15699   -4719.8246    1078.2209    1145.2751    1103.0284    115.71995            0 
515900000    5.159e+08    290.12927    93093.952    4331.7943     0.942689   -1261.1378    1981.0733    3594.2947    5172.1174    4228.9707    821.92128    572.45462    547.95928    290.12984   -4741.8262    1091.7176    1152.6584    1128.1976    108.11491            0 
516000000     5.16e+08    294.88646    93093.952    3324.6407     0.942689   -1177.2174    2118.1555    2865.3029    4002.5474    3106.0719   -656.94509    250.45929   -538.87435    294.88655   -4759.3511    1097.9995     1225.068    1138.0162    121.05004            0 
516100000    5.161e+08    287.55299    93093.952    3490.1505     0.942689   -1190.2085    2023.2125    3156.8725    4013.1998    3300.3791   -408.32263   -239.85163   -372.86019    287.55315   -4687.0674     1091.169     1165.973     1137.202    102.51503            0 
516200000    5.162e+08    290.26007    93093.952     3613.838     0.942689    -1261.928    1981.7448    2734.0717    4182.0313    3925.4109   -743.88168   -34.600522   -386.25565    290.26228   -4770.4664    1075.8221    1179.4817    1140.3301     112.9045            0 
516300000    5.163e+08    292.99803    93093.952    3526.0609     0.942689   -1189.3195    2084.9502    3475.0864    4078.5515    3024.5446   -696.73596   -449.97773    220.95186    292.99762   -4755.7379    1098.9949     1192.521    1167.0512    107.85136            0 
516400000    5.164e+08    295.01488    93093.952    4817.3034     0.942689   -1208.7386    2088.0695    4689.5347     5100.241    4662.1346   -863.34361    503.39159    381.88836     295.0165   -4761.1382    1085.0065    1186.6571     1162.558    118.17799            0 
516500000    5.165e+08    288.35674    93093.952    4156.6455     0.942689   -1217.5023    2004.9007    3281.8535    4069.4641    5118.6187   -941.65671   -951.04822    -257.5672    288.35698   -4739.5385     1090.718    1165.5791    1156.8243    108.91494            0 
516600000    5.166e+08    292.05477    93093.952    4679.8971     0.942689   -1223.7168    2040.0118    4970.6093    4812.5645    4256.5176   -584.25513   -61.480154   -644.28314    292.05356   -4731.9472    1046.0949    1173.7404    1179.3036    109.09157            0 
516700000    5.167e+08    297.75925    93093.952    5035.1802     0.942689   -1219.3634    2108.1131    5204.3603    4732.9415    5168.2389    275.58453   -380.95878    425.09799    297.75803   -4723.9219    1098.2743    1195.6753     1099.653    110.95585            0 
516800000    5.168e+08    292.74604    93093.952    3313.9088     0.942689   -1190.0202    2081.4335    2623.9404    3973.0165    3344.7696   -481.01822   -197.64386     770.4265    292.74582   -4746.2486    1121.4599    1161.5501    1151.5778    121.64056            0 
516900000    5.169e+08    289.74862    93093.952    5222.5485     0.942689   -1301.6757    1936.2817    4754.0246    5437.3787    5476.2422   -510.29966    611.37541    261.47545    289.74832   -4736.2036    1059.1458    1181.0426    1083.2446    111.09496            0 
517000000     5.17e+08    285.07989    93093.952    3847.9251     0.942689    -1254.051    1931.7329    4237.1162    3221.8426    4084.8164   -29.424778    175.51575   -327.29987    285.07992   -4741.1289    1073.4532     1205.716    1093.3929    114.51579            0 
517100000    5.171e+08    292.34994    93093.952    3551.7637     0.942689   -1224.2458    2042.7814    3371.4482    3799.1521    3484.6908   -549.31212    380.30729    358.15394    292.34906   -4719.8298    1091.9753    1171.4674    1117.2213    114.92002            0 
517200000    5.172e+08    295.81953    93093.952    4983.6495     0.942689   -1276.5163    2029.2838     4196.041    5065.0249    5689.8825   -263.46069    -162.7724   -188.34898    295.81911   -4695.5952    1071.3037    1179.6635    1055.6713    112.44037            0 
517300000    5.173e+08     286.7294    93093.952    4804.6675     0.942689   -1253.9095    1950.3079    5162.5831    4562.6138    4688.8057   -1053.9996   -744.18468   -372.03279    286.72926   -4705.3845    1087.0809     1188.274    1063.0565     113.0636            0 
517400000    5.174e+08    293.29967    93093.952     4163.701     0.942689   -1238.3504    2039.2901    3806.6288    4922.3793     3762.095   -519.13104   -183.84736    672.16934    293.29906   -4698.1482    1073.8357    1178.5271    1097.3467    110.08836            0 
517500000    5.175e+08    302.24386    93093.952    4411.4531     0.942689   -1194.0772    2183.5152    3818.1851     4862.135    4554.0393   -1074.3024     8.082837    551.33188    302.24243    -4703.834    1069.0865    1209.7175    1108.6876    122.26522            0 
517600000    5.176e+08    293.15149    93093.952    4306.8018     0.942689   -1132.7544    2143.2301    4364.2288    4124.3455     4431.831   -388.23571   -265.76117   -309.88465    293.15231   -4673.9306    1102.6474    1181.2017    1143.9292    113.39785            0 
517700000    5.177e+08    295.34413    93093.952    4651.3843     0.942689   -1218.3084     2082.179    5235.6004    4805.2257    3913.3268   -270.40587   0.30413749   -240.06566    295.34285   -4693.7753    1052.1357     1189.402    1122.7866    111.14263            0 
517800000    5.178e+08    292.75849    93093.952    3634.3892     0.942689   -1145.9609     2125.632    2845.9079     4695.949    3361.3107    225.38371    141.27612    292.21468    292.75857   -4698.2104    1073.8311    1229.6074    1131.1412    117.66977            0 
517900000    5.179e+08    294.98999    93093.952    4362.8366     0.942689   -1127.7431    2168.7868    5311.4313    4500.8108    3276.2678   -643.61443    177.93482    44.681956    294.99143   -4704.3506    1093.5515    1183.3276    1185.0263    114.70204            0 
518000000     5.18e+08    294.11926    93093.952    4314.4742     0.942689   -1166.5368    2120.2626    3829.7902    4957.7128    4155.9196   -680.34737   -29.318223    75.802139    294.12088   -4717.7203    1088.8524    1153.0358    1189.5805     119.7149            0 
518100000    5.181e+08    296.58154    93093.952    4192.2922     0.942689   -1350.3829    1963.9326    4086.4278    4126.8499     4363.599   -977.99304   -354.88953    303.58101    296.58211   -4711.0528    1013.6805    1145.6367    1090.2902    111.06243            0 
518200000    5.182e+08    292.45303    93093.952    3764.1913     0.942689   -1218.0089    2050.1703    3006.4198    4150.4004    4135.7537   -2000.8925   -784.91773    36.301069    292.45286   -4732.4182    1063.5168    1186.1379     1142.985    121.76958            0 
518300000    5.183e+08    289.27548    93093.952    5049.9314     0.942689   -1199.4801    2033.1899    6068.3378    5459.3344    3622.1219   -1034.9618   -310.99021   -416.01577    289.27557   -4723.6804    1117.7566    1155.6674    1138.9927    111.78361            0 
518400000    5.184e+08    290.40652    93093.952    4114.6947     0.942689   -1226.9449    2018.3645    3294.8044    4796.5715    4252.7082   -721.87042   -65.289633    431.97326    290.40541   -4741.6281    1064.0774    1189.0711    1142.3519    119.18283            0 
518500000    5.185e+08    293.14434    93093.952    3934.4555     0.942689   -1218.8621    2057.0425    3949.5985    4744.3488    3109.4192   -457.23211   -118.22008   -451.41842    293.14543   -4705.6598     1075.988    1162.2561    1132.3508    116.20291            0 
518600000    5.186e+08    292.21877    93093.952    3974.1361     0.942689   -1245.5981    2019.9633    3650.3512    4216.7836    4055.2737   -555.46909     307.9441    501.60234    292.21856     -4693.98    1047.9662    1156.2935    1141.0153    103.10686            0 
518700000    5.187e+08    292.49775    93093.952    4415.7331     0.942689   -1176.3478    2092.3312    3884.2686    4454.3668    4908.5638   -853.49331    184.98657    599.23478    292.49761   -4711.9471    1070.4553    1221.0467    1124.3932    119.70413            0 
518800000    5.188e+08    292.10015    93093.952    3429.3345     0.942689   -1286.7899    1977.4459    2926.5073    4102.0236    3259.4726   -1166.0326   -351.93522    241.40463    292.09932   -4770.9792    1080.1052    1184.0841    1100.4726    119.52737            0 
518900000    5.189e+08    293.39439    93093.952    4717.0483     0.942689   -1328.5492    1950.1498    3773.5891    4745.1343    5632.4215   -748.29351    168.60236   -54.181657    293.39467   -4722.0025    1046.8407    1125.2173    1102.6689    118.72634            0 
519000000     5.19e+08    295.68192    93093.952    3932.3656     0.942689   -1223.7621    2080.5002    4126.0029    4384.1367    3286.9571   -83.949843   -359.83021   -320.12119    295.68217   -4710.4189    1075.8812    1183.9967    1112.5959    114.18304            0 
519100000    5.191e+08    295.52242    93093.952    3559.5346     0.942689   -1224.2146    2078.2652    2458.1002    4543.2186    3677.2848    569.70768    63.343703    562.44575    295.52328   -4656.9533    1034.7308    1179.9868    1120.5842    97.436914            0 
519200000    5.192e+08    298.19263    93093.952    4235.5787     0.942689   -1256.7686     2075.551    2866.2903    4530.0889     5310.357   -781.29175   -98.873687   -622.04935    298.19302   -4712.6088     1080.007     1180.927    1080.1104    114.79577            0 
519300000    5.193e+08    289.61752    93093.952    4266.8034     0.942689    -1283.345    1953.1472    4808.4131      4970.98    3021.0172   -375.79725   -581.44796    187.82548    289.61779   -4721.0011    1080.6708    1146.5849    1088.8562    121.54425            0 
519400000    5.194e+08    296.63632    93093.952    5420.3153     0.942689    -1199.319    2115.6088    5218.2907    5894.6506    5148.0048   -1464.7693    274.94814    -379.5719    296.63779   -4717.3421    1095.4423    1152.9323    1158.7438    110.90479            0 
519500000    5.195e+08    302.64355    93093.952    3703.5675     0.942689   -1224.1709    2157.8881    3469.8895    4040.4364    3600.3767   -689.21599   -715.44203    216.03238    302.64293   -4772.0028    1103.6385    1185.3534    1140.0257    118.81434            0 
519600000    5.196e+08    295.38188    93093.952    4421.2237     0.942689   -1188.5115    2112.3978    3964.6829    4778.4487    4520.5396   -185.33133    78.520079    212.58386    295.38377   -4701.6674    1086.0303    1174.0759    1145.3928    107.65696            0 
519700000    5.197e+08    291.20371    93093.952    4138.3047     0.942689   -1204.7626    2049.4554    4325.3844    5555.8537    2533.6759   -171.37888    54.698215     23.41168    291.20362   -4734.1155    1081.8339    1175.0386    1155.8957    116.58454            0 
519800000    5.198e+08    293.06566    93093.952    4327.6483     0.942689   -1224.7676    2050.2578    3664.6474    3746.3817    5571.9156   -191.21504   -519.05651   -777.38695    293.06594   -4734.2554    1070.2496    1183.0091    1146.7694     109.4597            0 
519900000    5.199e+08    295.96324    93093.952    3638.7566     0.942689   -1201.0236    2106.3825    3757.9286    4126.4292    3031.9119   -144.40058   -755.20245   -12.528443     295.9643   -4718.7941    1048.0979    1179.8558    1179.1073     110.7095            0 
520000000      5.2e+08    290.00571    93093.952    4458.8354     0.942689   -1218.7635    2022.0667    4308.0248    4281.0658    4787.4154   -809.05218    124.91828   -161.27488    290.00626   -4749.9093    1048.6582    1179.4436    1187.1138    115.93017            0 
520100000    5.201e+08     292.4167    93093.952    3276.2422     0.942689     -1227.16    2040.6133    3036.0622    3126.5639    3666.1004   -666.22515    57.551072    73.944134    292.41877   -4744.1645    1097.5972    1176.8042    1131.9236    110.67952            0 
520200000    5.202e+08    301.56273    93093.952    4033.1812     0.942689   -1284.8272    2085.1534    4518.3043    3733.7893      3847.45    -618.7399   -844.78519    217.36954    301.56236   -4749.8882    1068.7187    1174.7429    1110.4923    111.10708            0 
520300000    5.203e+08    294.04201    93093.952    3853.6101     0.942689   -1237.9271    2048.0091    3796.3143    3472.7706    4291.7456   -700.89038   -386.03156   -243.89545     294.0419   -4738.1438    1041.8015    1210.4884    1133.8589    114.06793            0 
520400000    5.204e+08    294.88185    93093.952    3479.4538     0.942689   -1325.1359    1970.1856    2557.0004    3360.6058    4520.7552   -1412.8112   -403.60724   -656.45283    294.88202   -4749.8545    1068.5904    1146.8427    1095.9395    113.34601            0 
520500000    5.205e+08    293.18822    93093.952    3980.8856     0.942689   -1234.4695    2041.9255    2941.6461    4793.9474    4207.0633   -372.92681   -50.871299    495.75836    293.18945    -4712.027    1063.0157    1182.6697    1110.3672    121.50478            0 
520600000    5.206e+08    302.88478    93093.952    3858.3329     0.942689   -1243.2147    2141.5399    3381.0494    4731.3347    3462.6148    338.51971    -694.6765   -101.91132    302.88372   -4739.2072    1063.3565     1185.084    1130.0597    117.49233            0 
520700000    5.207e+08    294.06412    93093.952    4735.4286     0.942689   -1263.8751    2022.3082    3977.3599    4838.6606    5390.2653   -360.28428   -409.48016   -245.89678    294.06441   -4720.4903    1074.4022    1149.6359    1125.1611    107.41602            0 
520800000    5.208e+08    294.60039    93093.952    4497.1565     0.942689   -1299.7326    1992.4436    4565.1453    4274.8345    4651.4898   -721.86654    106.68448    96.444056    294.59871   -4726.1288    1066.8724    1142.9732       1112.6    103.95072            0 
520900000    5.209e+08    283.73282    93093.952    4259.0143     0.942689   -1315.1304       1855.6    3769.8488    4923.4317    4083.7625   -25.009638    46.612652   -647.50121    283.73376   -4746.4203    1061.8453    1150.3498    1099.1369    119.95795            0 
521000000     5.21e+08    295.50872    93093.952    4467.5121     0.942689   -1273.6646    2028.6622    3858.1012     4816.521    4727.9143   -707.73585   -117.24722   -158.42287    295.50788   -4733.9874    1083.8959    1163.6633    1104.6221    108.14151            0 
521100000    5.211e+08    290.24857    93093.952    3387.0719     0.942689    -1275.034    1968.5102    3389.7679    3738.1774    3033.2702   -679.73591   -239.01474    703.00287    290.24997   -4731.9609     1051.089    1183.0084    1109.6049    113.22459            0 
521200000    5.212e+08     301.8548    93093.952    3945.2435     0.942689   -1279.3497    2093.8948     3236.384    4762.6039    3836.7427   -746.58565    94.414184    536.08317     301.8547   -4713.8351    1061.8452    1158.8477    1105.3244     108.4681            0 
521300000    5.213e+08    290.51138    93093.952    4623.4461     0.942689   -1118.8962    2127.5849    5043.0476    5474.8373    3352.4533   -180.02902    -1541.502    152.07473    290.51179   -4738.4581    1124.8411    1232.4914    1138.4749    123.75446            0 
521400000    5.214e+08    290.62329    93093.952    4573.0998     0.942689   -1279.8988     1967.833    4452.5912    4559.0553    4707.6529   -263.10193   -455.28738   -77.697544    290.62491   -4731.9165    1096.9489    1154.6926    1091.2752    109.10107            0 
521500000    5.215e+08      288.183    93093.952    4324.4262     0.942689   -1222.5848    1997.8766    3729.1919    5036.0043    4208.0825   -577.49896    399.60677   -312.91604    288.18355   -4733.2304    1095.6571    1155.2967    1152.0671    107.62454            0 
521600000    5.216e+08    292.75619    93093.952    4820.8349     0.942689   -1152.3851     2119.182    5211.7465    5187.9422    4062.8161   -301.64127   -139.75777   -207.93691    292.75678    -4710.031     1057.311    1241.1733    1140.5288    118.63278            0 
521700000    5.217e+08    292.31467    93093.952    4404.4552     0.942689   -1179.3774    2087.2557    2188.6617    5749.1649    5275.5389   -446.79276    29.515474    142.09162    292.31451   -4698.2564    1094.8462    1170.6303    1146.3512    107.05133            0 
521800000    5.218e+08    294.30862    93093.952    4680.8889     0.942689   -1170.1508    2118.7648    4977.9291    4838.6842    4226.0535   -519.15604    229.71096    222.88112    294.30919   -4701.8975    1091.6873    1208.9936    1130.4629    100.60298            0 
521900000    5.219e+08    296.17102    93093.952     4031.005     0.942689   -1176.1147    2133.6133    4072.5407      4108.22    3912.2542   -413.25539    658.99967   -610.23431    296.17127   -4681.4857    1108.8358    1164.6124    1123.1851    108.73769            0 
522000000     5.22e+08    286.54191    93093.952    4321.6804     0.942689   -1342.7129    1859.4093    3446.5854    4076.0783    5442.3776   -511.24551     720.6376     157.3435    286.54258   -4688.1489    1017.2027    1158.0257    1064.8475    105.36014            0 
522100000    5.221e+08    288.45612    93093.952    4590.5368     0.942689   -1277.7921    1945.7215    5206.1124    4547.5903    4017.9077   -1263.5325      24.1152   -231.03312    288.45478   -4729.3123    1040.0533      1178.79    1114.4924    118.18452            0 
522200000    5.222e+08    300.43644    93093.952     4707.908     0.942689   -1248.9183    2108.4759    4882.5798    4777.2551    4463.8893   -16.495814    65.837482    109.06895    300.43539   -4745.2684    1095.2655    1171.8934    1121.1647    108.02637            0 
522300000    5.223e+08    299.32133    93093.952    4838.4606     0.942689   -1252.6245    2092.3085    4555.2398     5074.315     4885.827   -582.98019   -563.42977    572.67381    299.32122   -4755.5663    1077.8444    1201.2981     1107.783    116.01631            0 
522400000    5.224e+08    291.14506    93093.952    4450.8131     0.942689   -1272.9768    1980.5858    4309.5598    5408.1123    3634.7672   -172.75414   -768.61628   -732.76846     291.1447   -4726.5945    1045.1816    1179.3346     1112.233    116.86843            0 
522500000    5.225e+08    289.73533    93093.952    4747.2074     0.942689   -1291.8006    1946.0082    4197.9529    4896.6265    5147.0429    -843.0749    244.18104     22.02735    289.73555   -4719.8946    1066.5247     1146.024    1113.4182    102.12711            0 
522600000    5.226e+08    293.36818    93093.952     3995.653     0.942689   -1307.7808    1970.6252    4358.3815    3866.6668    3761.9106    510.29168    171.82921   -69.482032    293.36924   -4760.8015    1075.5985    1164.9285    1095.1842    117.30949            0 
522700000    5.227e+08    300.20667    93093.952    4321.7762     0.942689   -1248.7236     2106.103    3946.1558    4438.2103    4580.9626   -440.89905    619.69808    301.13128    300.20645    -4760.337    1071.9493     1222.946    1101.1992    115.51886            0 
522800000    5.228e+08    295.40123    93093.952    4334.9334     0.942689   -1277.1259    2023.9996    3402.9673    4986.8783    4614.9545   -1366.1257   -709.67753   -895.99725    295.40047   -4756.0419    1084.6286    1188.0113    1089.3563    116.91979            0 
522900000    5.229e+08    292.06634    93093.952    4809.8507     0.942689     -1300.69     1963.168    5215.4653    4186.0722    5028.0146     329.7762    141.23819    135.55416     292.0645   -4751.5006    1072.3969     1161.699    1094.6785    122.03616            0 
523000000     5.23e+08    294.73172    93093.952    3645.7462     0.942689   -1193.1362    2100.5075    3195.9052     3262.098    4479.2355   -101.23192   -360.73316    -629.0351     294.7323   -4742.7359    1074.4469    1252.0045    1111.3275    111.82086            0 
523100000    5.231e+08    290.89952    93093.952    4053.4823     0.942689   -1255.0631    1995.7556    3885.7467    4536.6044    3738.0957   -495.06402   -287.38648     363.1398    290.90168   -4716.7811    1069.6102    1174.1488    1105.1904    112.76864            0 
523200000    5.232e+08    289.49746    93093.952    5130.6472     0.942689   -1243.7798    1991.3708    4965.8508    5011.5816    5414.5092   -414.91107   -118.25745   -990.79814    289.49892   -4736.1979    1085.2583     1173.457    1122.3069     111.3959            0 
523300000    5.233e+08    295.36019    93093.952    2979.3558     0.942689    -1378.063     1922.604    1533.4997    4205.7057    3198.8621   -1383.2377    509.83789   -401.94746    295.36188   -4777.0615    1020.9612    1160.3406    1108.5704    109.12629            0 
523400000    5.234e+08    293.46348    93093.952    4796.0818     0.942689   -1232.2178    2047.2532    4727.6496    5040.2984    4620.2972   -961.27453     146.0903     335.9946    293.46246   -4736.1648    1054.8301    1187.5012    1146.8764    114.73939            0 
523500000    5.235e+08    295.91409    93093.952    3989.4866     0.942689   -1211.0798     2095.777    3676.3961    4087.7821    4204.2816   -974.80791    19.184183    188.29648    295.91317   -4765.1801    1102.5009    1229.6799    1108.1034     113.8161            0 
523600000    5.236e+08    289.26113    93093.952    3156.9163     0.942689   -1284.1484    1948.3612    2483.4457    3937.7523    3049.5508   -457.76805    -552.9405    41.554869    289.26011   -4762.5419    1053.8766    1170.7358    1139.2486    114.53253            0 
523700000    5.237e+08    291.72741    93093.952    3912.5929     0.942689   -1223.3372    2036.7331    3757.7916    3947.9067    4032.0803   -598.66364   -101.37662    492.11588    291.72805   -4743.5878    1066.6811    1224.8652    1121.9458     106.7585            0 
523800000    5.238e+08     292.5362    93093.952    4419.8649     0.942689    -1233.896    2035.2127     3649.346    5358.6588      4251.59   -622.25533   -516.63598    764.33479    292.53756   -4704.6012    1048.3749     1179.631     1129.386     113.3133            0 
523900000    5.239e+08    295.20735    93093.952    3833.0986     0.942689   -1210.2247    2088.7343    2895.0838    3973.7451     4630.467   -352.09754    9.2436253    678.02532    295.20754   -4700.3841    1049.7931    1131.1196    1190.2064    119.04024            0 
524000000     5.24e+08    294.94531    93093.952    3787.8013     0.942689   -1302.1162    1993.9144    2802.3136    4933.8397    3627.2506   -819.29655     -301.265    103.37052    294.94491    -4774.476    1063.4881    1144.1765    1155.6385    109.05659            0 
524100000    5.241e+08    288.77718    93093.952    4897.6541     0.942689   -1235.9158    1991.1856    4797.9653    5061.0202     4833.977   -442.79504    395.23433    328.57976    288.77692   -4722.6075    1092.6114    1167.0139    1117.7202    109.34618            0 
524200000    5.242e+08    290.28994    93093.952    3814.9017     0.942689   -1308.2908    1935.7157    3244.2995    4039.4514    4160.9541   -1514.3122   -193.20977     182.6967    290.28991   -4731.4954    1046.9698    1159.6594    1107.6683    108.90708            0 
524300000    5.243e+08    300.23855    93093.952    4477.0272     0.942689   -1305.9526    2049.2302    5244.0683     3811.003    4376.0101   -780.85702   -240.23113    472.28138    300.24024   -4763.6142    1067.4047    1161.1594    1115.5579    113.53954            0 
524400000    5.244e+08     293.1264    93093.952    3372.2013     0.942689   -1270.2385    2005.4656    2934.5438    4058.3447    3123.7155   -919.13939    263.14924    558.18925    293.12576   -4737.1005    1085.7973    1197.3038    1075.2241    108.53672            0 
524500000    5.245e+08     291.3306    93093.952    4107.4867     0.942689   -1218.2886    2037.3475    4465.3971    4454.5492    3402.5137   -1505.7136    42.688875   -516.51902    291.33046   -4725.7808    1078.7352    1179.1077    1137.0954    112.55405            0 
524600000    5.246e+08    293.46826    93093.952    4667.0085     0.942689   -1192.5876     2086.937    4204.7173    4632.8007    5163.5077   -1152.1501   -1123.5473   -375.62613    293.46763   -4698.5786    1045.1002    1208.3585    1140.8951    111.63737            0 
524700000    5.247e+08    290.23948    93093.952    3876.7903     0.942689   -1211.8077    2031.6349    4939.6128    3326.9309    3363.8273   -804.12138    -757.6889   -245.62603    290.23979   -4699.0382    1075.6777    1138.0769    1160.1339    113.34195            0 
524800000    5.248e+08    290.10198    93093.952    4006.5491     0.942689   -1220.4768    2021.4293    4686.4697    4141.7545    3191.4231   -625.52411    -710.2907    -315.4406    290.10198   -4699.4131    1071.9355     1146.444     1152.527    108.02983            0 
524900000    5.249e+08    294.31798    93093.952    3442.8028     0.942689   -1214.4558    2074.5643    3916.7863    4026.7633    2384.8587   -90.342309   -527.03632   -275.11147    294.31706   -4699.6367    1098.3741    1194.3993     1077.337    115.07053            0 
525000000     5.25e+08    289.31692    93093.952    4301.2805     0.942689   -1266.2369    1966.8961    3811.6183    5345.2448    3746.9785   -310.83207   -742.19344    521.10825    289.31699   -4735.3026    1099.8058    1175.5469     1076.428    117.28497            0 
525100000    5.251e+08    288.31046    93093.952    3550.5337     0.942689   -1238.0648     1983.821    4117.1684    3216.3145    3318.1183   -396.25426    -312.7696    880.90769    288.31002   -4723.9053    1028.8803    1211.9759    1124.8524    120.13194            0 
525200000    5.252e+08    292.84524    93093.952    3847.6543     0.942689   -1339.2151    1933.3472    3246.8912     4429.373    3866.6989   -1357.0448     781.5134    847.13005     292.8455   -4758.9258    1027.0754    1186.1278    1099.5789    106.92865            0 
525300000    5.253e+08    288.97864    93093.952    4500.6205     0.942689   -1233.4467    1995.9061    3666.1718    5537.5003    4298.1893   -290.84227    597.26461    215.99276    288.97976   -4743.7813    1128.7181    1146.1316    1124.9439    110.54112            0 
525400000    5.254e+08      287.121    93093.952     4124.888     0.942689   -1199.3734    2009.2201    3752.7322    4424.0452    4197.8868   -461.50733   -354.22049   -454.97226    287.11972   -4691.5422    1076.0892    1151.3885    1153.7754    110.91582            0 
525500000    5.255e+08    292.21724    93093.952    4335.6105     0.942689   -1199.1831    2066.3611    4349.7631    4032.8159    4624.2525   -328.03118    420.18772   -462.91221    292.21854   -4701.7711    1047.7734    1213.9354    1128.2564    112.62282            0 
525600000    5.256e+08    298.66718    93093.952      3733.94     0.942689   -1215.2659    2122.3569    3137.8251    4102.1967    3961.7982   -821.25461    533.25265    136.58748    298.66672   -4719.8223    1088.0524    1199.8643    1103.1914    113.44826            0 
525700000    5.257e+08    299.00496    93093.952    3841.2427     0.942689   -1279.4329    2061.9646    3821.5688    3468.3305    4233.8289   -327.74619    259.35532   -164.91149    299.00567   -4675.9143    1034.8437    1156.8094    1104.7553    100.07294            0 
525800000    5.258e+08    293.10449    93093.952    4706.1564     0.942689    -1188.006    2087.4533    4544.1165    4914.4324    4659.9201    -906.6842   -577.81848   -284.02447    293.10472   -4725.9567    1052.3885    1234.8442    1132.4738    118.24419            0 
525900000    5.259e+08    294.11026    93093.952    3852.6497     0.942689    -1116.226    2170.4728    2443.4141    5359.9956    3754.5395    -860.5412   -355.38229   -631.71186    294.11053   -4713.8389    1093.2714    1233.5985    1159.4876     111.2555            0 
526000000     5.26e+08    301.28082    93093.952    3703.0734     0.942689   -1182.8683     2183.962    3141.3487    4161.4967    3806.3748   -812.09401   -606.59856   -333.91708    301.28115   -4727.2273    1111.1598    1185.8597    1131.5787    115.76083            0 
526100000    5.261e+08    290.76563    93093.952    3790.0842     0.942689   -1254.6703    1994.6522    2292.3361    5249.3196     3828.597    277.02631   -489.95748    441.61223    290.76482   -4726.0923    1046.4797    1160.4584    1153.4079    111.07601            0 
526200000    5.262e+08    295.61192    93093.952    3640.4552     0.942689   -1211.7192    2091.7609      4195.92     3996.495    2728.9507   -489.72136    360.89017   -236.22768    295.61242   -4746.4665    1101.8838    1183.8834    1136.1584    112.82169            0 
526300000    5.263e+08    287.38087    93093.952    4051.8743     0.942689   -1259.8763    1951.6213    4789.7267    3848.7319    3517.1643   -559.91935   -161.11111   -194.23924    287.38148   -4748.2707    1092.4032    1165.6104    1112.8848    117.49609            0 
526400000    5.264e+08    292.16428    93093.952    4708.4161     0.942689   -1253.5458    2011.4067    4765.0066    5124.8191    4235.4228   -258.31041  -0.95358038   -319.19566    292.16571   -4737.4718    1100.3332    1166.3952     1100.371    116.82657            0 
526500000    5.265e+08    295.89429    93093.952    3741.4416     0.942689    -1302.536    2004.0995    3716.5011     4184.883    3322.9406     -682.162   -473.77733    331.16775     295.8967   -4762.9484     1076.781    1142.2351    1127.1191    114.27722            0 
526600000    5.266e+08     296.0692    93093.952    3706.8909     0.942689   -1258.5388    2050.0513    2497.4425    4384.6984    4238.5318   -948.33044    320.53948   -171.74554    296.06935   -4708.4282     1055.993    1174.6282    1109.2087    110.05949            0 
526700000    5.267e+08    288.32672    93093.952    4105.9401     0.942689    -1284.965    1937.1025    3992.0503    4480.3262    3845.4439   -555.12016    409.29864    225.12778    288.32602   -4722.8263    1035.3803    1174.3642    1122.8657    105.25107            0 
526800000    5.268e+08    286.70666    93093.952    4986.3617     0.942689   -1357.1641    1846.7991    5018.0127    5272.8683     4668.204   -847.83613   -258.65208   -1018.8909    286.70544   -4781.3549    1052.5261    1164.9115    1094.5699    112.18337            0 
526900000    5.269e+08     294.0226    93093.952    3957.4983     0.942689   -1313.5136    1972.2056    4189.4976    4606.6704    3076.3269   -713.03115   -315.44602   -444.52413    294.02215   -4725.2906    1051.4167    1159.4873    1088.1189    112.75403            0 
527000000     5.27e+08    293.58941    93093.952    4827.3368     0.942689   -1364.5247    1916.3537    4544.4367    4938.0374    4999.5363   -266.83854   -259.36729    208.03291    293.58894   -4716.2573    1010.4185    1173.6833    1063.5929    104.03793            0 
527100000    5.271e+08    294.64117    93093.952    3130.6109     0.942689   -1220.5763    2072.0555    2505.3905    4320.8556    2565.5865   -688.34134   -185.31336    441.47168    294.64216   -4731.6974    1077.8826    1156.5265    1160.8055    115.90655            0 
527200000    5.272e+08    294.73961    93093.952    4475.4642     0.942689   -1242.2388    2051.4932    3835.2363    5178.5557    4412.6005   -816.15125   -100.62608   -138.95258    294.74086   -4730.2538       1067.9    1161.2678    1138.6936    120.15367            0 
527300000    5.273e+08    294.32163    93093.952    4443.3245     0.942689   -1150.5021    2138.5588    4566.4503    4987.4739    3776.0494   -327.09407   -108.34731    -115.1956    294.32146   -4725.6068    1087.9761    1231.0156    1139.4216    116.69145            0 
527400000    5.274e+08    289.93225    93093.952    4958.5875     0.942689   -1305.1627    1934.8467    5680.8838    4674.9947     4519.884    298.20194    312.27126    661.46579    289.93157   -4766.2625    1048.1321    1182.5887    1115.5496    114.82939            0 
527500000    5.275e+08    297.70941    93093.952     5186.274     0.942689   -1117.5449    2209.3748     5340.923    5766.8461     4451.053    -8.611421   -13.245764    733.22976    297.70928    -4729.123    1122.9716    1200.6251    1166.2506    121.73082            0 
527600000    5.276e+08    291.33999    93093.952     3919.249     0.942689    -1181.676    2074.0649    2909.4602    4749.6464    4098.6405   -1212.0203   -240.80419    315.38401     291.3382   -4739.0378    1102.9864    1185.7903    1154.2193    114.36581            0 
527700000    5.277e+08    299.59054    93093.952    3595.1795     0.942689   -1303.8136    2044.1277    2908.7252    4165.6358    3711.1775    280.96187   -293.47689    63.425586    299.58958   -4739.9443    1053.7982     1140.197    1130.3068    111.82861            0 
527800000    5.278e+08    289.69952    93093.952    4327.1937     0.942689   -1260.9117    1976.4969    4219.9108    4308.5566    4453.1136   -757.54733   -375.67621    178.10295     289.6989   -4731.4888    1058.4565    1144.0225    1156.8073    111.29082            0 
527900000    5.279e+08    288.51483    93093.952    3875.1448     0.942689   -1244.3324    1979.8372    3200.1699    3739.9789    4685.2857   -668.73685   -158.78965    847.34847    288.51361   -4745.1102    1065.8469    1170.0448    1145.1591      119.727            0 
528000000     5.28e+08     285.5634    93093.952    4629.7889     0.942689   -1234.1052    1957.0821    3543.7532    5439.8532    4905.7604   -1535.0239   -178.13155   -735.28981    285.56317   -4725.6287    1043.8575    1173.8834    1154.3112    119.47146            0 
528100000    5.281e+08    291.86612    93093.952    4735.1025     0.942689   -1236.1695     2025.451    4698.4279    4833.0107     4673.869    -239.9362    96.454633   -127.71486    291.86694    -4743.173     1046.482    1208.1497    1127.2574    125.11437            0 
528200000    5.282e+08    295.61581    93093.952    4143.6776     0.942689   -1363.9196    1939.6039    3486.6835    4303.8012     4640.548   -743.14548    494.76531   -257.84475    295.61522   -4731.8518    1011.9639    1123.5957     1120.177    112.19565            0 
528300000    5.283e+08    295.23593    93093.952    4416.2667     0.942689   -1155.4386    2143.8396     3676.056    4716.3543    4856.3897   -792.60767   -49.535066    163.90114    295.23556   -4712.2382    1079.4936    1224.8547    1126.3457    126.10559            0 
528400000    5.284e+08    289.53138    93093.952    4045.1307     0.942689   -1166.0846    2069.4451    3855.3743    3889.0257    4390.9922    -585.4363    347.29693    -809.7933    289.53276   -4717.5413    1086.8132    1176.8595    1162.6861    125.09794            0 
528500000    5.285e+08     291.1224    93093.952    3769.6623     0.942689   -1282.9933     1970.316    3380.5651    4112.2584    3816.1635    82.896767   -168.80078   -181.60013    291.12512    -4731.391    1040.8269    1165.6686    1128.2484    113.65388            0 
528600000    5.286e+08    302.01489    93093.952    4352.3624     0.942689   -1240.4326     2134.601    3312.5204    5671.6682    4072.8986   -476.06428   -199.44008    646.48224    302.01598   -4720.9892    1100.6949    1116.2703    1159.3008    104.29062            0 
528700000    5.287e+08    299.44323    93093.952    4804.3617     0.942689   -1250.7254    2095.5697    4383.8086    5536.8259    4492.4508   -581.54007   -228.40973    282.30475    299.44496   -4737.1005    1083.3125    1167.7835    1119.5406    115.73838            0 
528800000    5.288e+08    289.32713    93093.952     3896.985     0.942689   -1214.9106    2018.3365    3389.6529    4144.3555    4156.9465    2.4447033    113.96332     285.8635    289.32764   -4730.7974    1076.3569    1173.8677    1153.0258    112.63649            0 
528900000    5.289e+08    292.33509    93093.952    3944.0362     0.942689   -1272.3503     1994.511    3142.1491    4782.8739    3907.0856    409.03996    597.84516   -822.39311    292.33421   -4742.5554    1065.4211    1171.6183    1123.4398    109.72597            0 
529000000     5.29e+08    289.12643    93093.952    3821.4189     0.942689   -1263.2942    1967.7101    3985.2064    4123.5068    3355.5434   -778.63995    97.591874    660.91585    289.12665    -4783.687    1044.9546    1176.9644    1182.1727    116.30112            0 
529100000    5.291e+08     295.2879    93093.952    4598.7814     0.942689   -1309.3762    1990.4829    4787.3597    4376.8215    4632.1629   -8.1589891   -659.14605   -791.61457    295.28783   -4742.3155    1051.4964    1124.4607    1144.1751    112.80702            0 
529200000    5.292e+08    298.01137    93093.952    3979.9711     0.942689    -1320.706    2009.5881     3977.551    4742.0887    3220.2737   -865.82034    217.88977    -157.4255    298.01101   -4735.9225     1025.059      1161.34    1120.4969    108.32072            0 
529300000    5.293e+08    293.23977    93093.952    4286.1987     0.942689   -1315.8489    1961.1222    3799.5228    4095.6112     4963.462   -312.73034    340.56103    432.90524    293.23951   -4747.8814     1037.208    1175.9794    1104.6736    114.17157            0 
529400000    5.294e+08    287.56209    93093.952    3835.9878     0.942689   -1264.9653    1948.5574     4382.787    3144.9225    3980.2539   -839.85471   -2.9575861   -127.92634    287.56288   -4738.5215    1073.1064    1160.1251    1123.7352    116.58951            0 
529500000    5.295e+08    296.43221    93093.952    4208.4124     0.942689   -1232.3248     2080.322    3680.5304    4807.4659    4137.2408   -1092.6063    -12.82056    611.84433    296.43189   -4725.3887     1054.722    1178.2309    1147.3043    112.80678            0 
529600000    5.296e+08    294.53643    93093.952    4252.1603     0.942689   -1224.1408    2067.3205    3920.6064    3890.4446    4945.4299   -572.59825    126.04476    184.12305    294.53547   -4722.3865    1080.4296    1157.4027    1145.3585    115.05495            0 
529700000    5.297e+08     292.9883    93093.952    3780.5146     0.942689   -1148.8407    2125.3203     3284.663    4031.6939     4025.187    -418.8641    301.26762    236.58978    292.98879   -4676.2768    1106.1321    1167.2152    1143.1869    110.90186            0 
529800000    5.298e+08    293.03845    93093.952    4078.2243     0.942689   -1236.9387    2037.7826    3950.5057    5035.2708    3248.8963   -940.00356   -358.59067    231.98744    293.03917    -4720.734    1076.5211    1150.1257    1134.6379    122.51067            0 
529900000    5.299e+08    300.87338    93093.952    3448.0462     0.942689   -1207.8928    2154.3843     3992.593    3682.3157      2669.23   -469.59711   -470.91503   -481.93849    300.87373   -4704.1387    1030.4201    1165.7448    1185.9295     114.1515            0 
530000000      5.3e+08    292.57067    93093.952    4049.5871     0.942689   -1225.9452    2043.5488    4814.2161    3180.0067    4154.5386   -1472.2149   -867.29027   -476.55975    292.57092    -4740.913     1047.823    1189.9261    1163.3783    113.84039            0 
530100000    5.301e+08    296.02334    93093.952    3921.1312     0.942689   -1197.4841    2110.5935    4014.7666    4227.0569      3521.57   -816.58718   -299.19381    238.64616    296.02357   -4744.0483    1102.5505    1146.3241    1184.1423    113.54741            0 
530200000    5.302e+08    294.42327    93093.952    3874.7337     0.942689    -1214.755    2075.4417    3546.3786    4541.8725    3535.9498    182.93084    879.34716   -75.581515    294.42372   -4720.0119    1132.3111    1138.4286    1116.3936    118.12356            0 
530300000    5.303e+08    300.60517    93093.952    4340.0384     0.942689   -1277.7026    2081.5773    3409.5063    4124.4858    5486.1231   -1287.4524   -686.31016     75.86923    300.60606   -4697.5353     1058.416    1137.7586    1112.9562    110.70209            0 
530400000    5.304e+08    288.62926    93093.952    3874.9838     0.942689   -1296.2669    1929.1815    4251.3217    3317.5023    4056.1274   -868.19384    291.83165   -189.98936     288.6295   -4690.3054     1045.188    1118.4414    1118.6097    111.79938            0 
530500000    5.305e+08    294.68731    93093.952    4515.4469     0.942689   -1179.1732    2113.9743    4441.5771    4983.6549    4121.1089    50.566782    773.68627   -308.81287    294.68528   -4703.1037     1065.656    1181.2921    1158.1659    118.81651            0 
530600000    5.306e+08    290.82434    93093.952    4414.3839     0.942689   -1166.6758    2083.3028    4769.4597    4999.4581    3474.2338   -393.87063     614.7547    -445.7394    290.82417   -4696.7744    1127.7051    1156.1354    1125.7916    120.46644            0 
530700000    5.307e+08        290.9    93093.952    4320.8497     0.942689   -1223.4026    2027.4215    3946.2534    3934.1016    5082.1942   -668.26689    390.30195    209.53842    290.90035   -4675.1374    1050.3983    1179.2941    1106.7359    115.30644            0 
530800000    5.308e+08    289.88853    93093.952    4012.6321     0.942689   -1144.9942    2094.5266    2974.5966    4948.8604    4114.4392   -283.54482   -131.07463   -44.037589    289.88897   -4724.7241     1062.867    1198.4688    1190.1939    128.20026            0 
530900000    5.309e+08    287.72164    93093.952    2846.4183     0.942689   -1183.1244    2032.1814    1817.1471    3396.4019     3325.706   -966.96171   -560.94877    143.34617    287.72089   -4697.6935    1054.3423    1201.0652     1145.345    113.81671            0 
531000000     5.31e+08    293.07268    93093.952    3794.4079     0.942689   -1143.0405    2132.0633    3298.5515     4365.251    3719.4211   -101.64498   -514.71037    57.505914    293.07276   -4730.2098    1112.9553    1202.4537    1156.6895    115.07073            0 
531100000    5.311e+08    293.92251    93093.952    3850.8859     0.942689    -1244.723    2039.8778    3101.2708    3823.0487    4628.3382   -484.48318   -175.92224   -206.73405    293.92225   -4731.4004    1047.9706    1216.7087    1099.4177    122.58031            0 
531200000    5.312e+08    294.23088    93093.952    3186.6356     0.942689     -1230.78    2057.2669    2766.3091    3330.0675    3463.5302   -203.45767   -15.144391    205.44867    294.23118   -4685.1376    1074.1934    1126.8626    1144.7818    108.51979            0 
531300000    5.313e+08    284.94829    93093.952    3719.4467     0.942689   -1196.6763     1987.637    4463.6079    2977.5373    3717.1949   -678.84256   -428.43909    62.711335    284.94841   -4703.9607     1054.087    1195.4949    1134.4368    123.26566            0 
531400000    5.314e+08    293.90461    93093.952    3458.9548     0.942689   -1106.9866    2177.4141    2447.0051     4552.223    3377.6362    -1113.798    102.34812   -222.90422    293.90459   -4700.0463    1112.1669    1154.8827    1203.6451    122.36509            0 
531500000    5.315e+08      292.572    93093.952    4614.2554     0.942689   -1248.3575    2021.1512    5089.6553    4513.6683    4239.4426    -200.3132     938.0625    131.53458    292.57105   -4723.0996    1092.0463    1162.4273    1114.6473    105.62125            0 
531600000    5.316e+08    299.35201    93093.952    4381.6075     0.942689   -1248.7705    2096.5053    3826.0129    4119.3993    5199.4104     -370.054    396.64084   -129.88138    299.35131   -4721.9917    1071.2123      1150.93    1139.0771    112.00174            0 
531700000    5.317e+08    292.02462    93093.952    3992.0836     0.942689   -1359.0487    1904.3431    2510.4915     4908.827    4556.9323   -321.60161   -61.104796    569.10544    292.02234   -4768.8877    1066.5419    1135.8498    1095.1199    112.32733            0 
531800000    5.318e+08    293.29147    93093.952    3528.3584     0.942689   -1177.6729     2099.876    2484.9298    3832.9823     4267.163   -1368.4186    -1140.449   -667.49261    293.29154   -4717.2767    1116.3673    1166.0442    1148.0468    109.14548            0 
531900000    5.319e+08    292.45182    93093.952    3612.8475     0.942689   -1241.6107     2026.555    2802.1395    4095.6626    3940.7404   -791.28288   -490.05248    -1136.636    292.45161   -4725.5785    1050.0611    1166.2851    1152.0066    115.61507            0 
532000000     5.32e+08    295.91871    93093.952    4279.4632     0.942689   -1210.6358    2096.2726    4378.6984    4546.0729    3913.6182   -403.68344    52.134112   -45.868968    295.92043   -4699.9941    1091.9732    1174.5375    1119.7532     103.0944            0 
532100000    5.321e+08    298.97131    93093.952    4112.7644     0.942689   -1289.5131    2051.5083    3145.0693    4490.6017    4702.6223   -834.13729    -139.3737     404.2444     298.9701    -4734.112    1060.1623    1142.5564    1125.0079    116.87229            0 
532200000    5.322e+08    295.76114    93093.952    4463.1378     0.942689   -1277.1172    2028.0304     4604.862    4564.6908    4219.8605    198.94987    363.03027    886.15366    295.76226   -4716.0889    1034.2491    1180.9335    1104.4311    119.35799            0 
532300000    5.323e+08    287.76171    93093.952    3775.7634     0.942689   -1236.4992    1979.2542    4065.6521    3198.5968    4063.0414   -331.38029    610.53861    448.07775    287.76191   -4722.4969    1075.4722     1188.068    1111.1346    111.32287            0 
532400000    5.324e+08    294.59102    93093.952    3758.7368     0.942689   -1216.8301    2075.2413    4122.7601     3759.422    3394.0282   -938.72289    673.25202    526.13041    294.59137   -4745.8594    1030.0562    1187.7825    1209.1129    102.07768            0 
532500000    5.325e+08    293.75178    93093.952    3953.0944     0.942689   -1204.5002    2078.1927    2984.6711    4967.4475    3907.1646   -903.85558   -82.850726     784.0747    293.75138   -4702.8514       1073.7    1172.4989    1143.3455    108.80685            0 
532600000    5.326e+08    295.96297    93093.952    4101.4859     0.942689    -1143.091     2164.312    3816.3073    4577.7962    3910.3542    -258.4097    607.04876   -704.26199    295.96393   -4687.5307    1096.9253    1191.3832    1142.1453    113.98598            0 
532700000    5.327e+08    289.26309    93093.952    3042.1846     0.942689   -1237.4237    1995.1077    3069.1982    3701.0416     2356.314     130.9979   -377.46286    48.665934    289.26356    -4672.903     1039.181     1135.042    1151.7793    109.47702            0 
532800000    5.328e+08    294.84094    93093.952    4240.7167     0.942689   -1239.2108    2055.6535     3629.068    3993.0517    5100.0304   -1567.8505     604.6326    172.19452    294.84024   -4705.7017    1069.8922    1141.3182    1140.7202    114.56037            0 
532900000    5.329e+08    298.23813    93093.952    3931.3614     0.942689   -1218.9997    2113.8284    3506.4427      4634.69    3652.9513   -382.08279   -779.94423   -1070.2719    298.23718   -4743.7919    1066.0831    1193.0343    1151.8615    113.81329            0 
533000000     5.33e+08    295.01907    93093.952    4302.4724     0.942689    -1193.588     2103.267    4344.5007     4191.202    4371.7144   -117.13038   -317.09608   -701.76337    295.01912   -4720.5075    1067.3089    1205.4448    1135.6541     118.5118            0 
533100000    5.331e+08    287.35176    93093.952    3938.0226     0.942689   -1304.2351    1906.9371    3544.2176    4066.2832     4203.567   -114.72652   -159.40259   -687.51994    287.35194   -4734.0852    1057.5289     1142.679    1120.5214    109.12074            0 
533200000    5.332e+08    287.43843    93093.952    3301.0533     0.942689   -1233.1689    1978.9718    3072.0159    3336.0944    3495.0494   -469.27729   -114.76639   -604.76326    287.43892   -4725.4744    1060.4451    1170.3794    1141.3905    120.09053            0 
533300000    5.333e+08    297.33081    93093.952    4191.5218     0.942689   -1311.4694    2011.2194    4100.3005    4494.6811    3979.5838   -182.06591    624.46301    -320.8291    297.33146   -4737.3672    1028.3759    1159.3156    1111.3836    126.82268            0 
533400000    5.334e+08    288.43298    93093.952     4559.229     0.942689    -1138.188    2085.0669    4243.7264    4978.0652    4455.8953   -262.24332     171.8938    310.04135    288.43409   -4698.3178    1090.0587    1201.1722     1150.279    118.61997            0 
533500000    5.335e+08    296.66549    93093.952    4881.3331     0.942689   -1227.6012    2087.6526    5632.5429    4170.4602    4840.9962   -396.20302   -576.97664   -401.34325    296.66637   -4717.1337    1037.3102    1199.9075    1135.5837    116.73118            0 
533600000    5.336e+08     294.6837    93093.952      2962.76     0.942689   -1181.9206    2111.1865    2345.3517    3143.9764     3398.952   -761.06894   -1384.0508    -381.0543    294.68331     -4709.77    1060.8631     1141.341    1217.4233    108.22196            0 
533700000    5.337e+08    290.07605    93093.952    3118.2594     0.942689    -1158.426    2083.1904    2904.5525    2699.2716    3750.9541   -489.46349   -334.99427    618.67332    290.07574    -4699.507    1100.7608     1184.373    1149.1607    106.78651            0 
533800000    5.338e+08    299.12355    93093.952    4146.8349     0.942689    -1242.202    2100.5207    3695.2486    3982.6583    4762.5979   -753.61059    780.99191    125.51171    299.12419    -4716.921    1109.9822    1164.2059    1089.0687    111.46216            0 
533900000    5.339e+08    297.94445    93093.952    5437.1642     0.942689   -1147.8511    2181.6951    5064.0833    6350.2248    4897.1845    9.7220506    553.78689    371.04297    297.94358   -4700.6038    1064.1715    1201.1611    1176.8194    110.60077            0 
534000000     5.34e+08    295.89266    93093.952    4792.8015     0.942689   -1191.2312    2115.3861    4867.3476    4752.1884    4758.8687     498.5093    500.15871    619.11589    295.89121   -4714.0726    1097.2381    1190.4688    1122.5265    112.60799            0 
534100000    5.341e+08    287.90692    93093.952    2679.0884     0.942689   -1282.8554    1934.5208    2111.6186    2856.6769    3068.9697    20.305142    41.306521    387.29345    287.90662   -4751.8525    1069.0291    1107.8461    1191.2286    100.89335            0 
534200000    5.342e+08    288.08353    93093.952    4503.0859     0.942689   -1183.4049    2035.9449    4857.2528     4201.397    4450.6079   -452.80488    16.715909   -166.22204    288.08277   -4721.0644    1064.9189    1188.9134     1166.737    117.09027            0 
534300000    5.343e+08    300.13017    93093.952    4352.5283     0.942689   -1301.6929    2052.2789    3794.1366    4719.0258    4544.4226     238.4803   -498.30831   -109.93588    300.12994   -4749.2421    1068.1012    1174.4871    1097.0233    107.93768            0 
534400000    5.344e+08     293.7518    93093.952    4994.9381     0.942689    -1187.908    2094.7852    4386.5161    5174.3338    5423.9644   -396.13125    702.15867    -551.5028    293.75067   -4713.3265    1071.7202    1216.5633    1123.8531    113.28198            0 
534500000    5.345e+08    294.45685    93093.952    4959.8523     0.942689    -1179.646     2110.926     4372.099    5918.6179    4588.8401    490.66319    513.97937    219.75744     294.4552   -4721.1915    1135.0709    1147.8027    1146.5954    112.07654            0 
534600000    5.346e+08    298.61591    93093.952    4553.8258     0.942689    -1151.116    2185.9338     5246.126    4158.4696    4256.8819    290.14797    148.69467   -288.18897    298.61334   -4732.2633    1106.9766    1215.7576    1144.1911    114.22207            0 
534700000    5.347e+08    291.12442    93093.952    3637.5497     0.942689   -1288.3227    1965.0092    2333.2256    3938.5176     4640.906   -301.64146    300.60535    33.124111    291.12297   -4772.6129    1071.1552    1155.2121    1148.5491    109.37379            0 
534800000    5.348e+08    289.20919    93093.952    3305.8971     0.942689   -1247.9937    1983.9354    3041.6161    3023.4743     3852.601   -664.00219    259.23077   -229.76055    289.20964   -4712.4303    1081.5631    1160.7873    1114.4413    107.64487            0 
534900000    5.349e+08    294.02156    93093.952    4485.0331     0.942689   -1259.6614    2026.0462    4392.4286    4118.0828    4944.5878   -782.28855    494.31566    174.58398    294.02097    -4720.761    1053.4535     1200.633    1088.1137     118.8995            0 
535000000     5.35e+08     289.8742    93093.952    4583.8561     0.942689   -1243.0896     1996.271    4236.7634    4364.2279    5150.5771   -484.51335    330.01955    67.950571    289.87425   -4757.2751    1125.6974    1145.0098    1128.4481    115.03028            0 
535100000    5.351e+08    296.42388    93093.952    3919.1462     0.942689   -1243.1424    2069.4114    3356.4499    4215.3914    4185.5973   -526.61574    69.029159    337.36602    296.42429   -4726.7155     1066.155    1171.7734    1137.8996    107.74511            0 
535200000    5.352e+08    285.04894    93093.952    3742.3395     0.942689   -1253.5312    1931.9069    3861.0542     3804.656    3561.3084   -552.14811   -164.31946    277.30295    285.04865   -4761.5103    1062.7674    1147.9118    1181.5542    115.74569            0 
535300000    5.353e+08    290.48671    93093.952    3327.7615     0.942689   -1359.9027    1886.3028     3143.064    3209.4176     3630.803   -1104.8967    97.371396     309.0414    290.48806   -4759.8031    1015.5863    1194.1135    1083.6726    106.52807            0 
535400000    5.354e+08    294.97246    93093.952    4899.6852     0.942689   -1189.9655    2106.3685    5549.7382    5002.3923    4146.9249    109.17456    509.10512   -11.008699     294.9715   -4728.5693    1126.3761    1184.8376    1113.4595    113.93051            0 
535500000    5.355e+08    294.93977    93093.952    4586.8753     0.942689    -1311.342    1984.6267     4481.259    3763.8372    5515.5298   -396.56657    246.97353    -215.7894    294.93948   -4762.6698    1089.5944     1137.163    1116.1948    108.37559            0 
535600000    5.356e+08    291.61477    93093.952     3738.932     0.942689   -1208.6857    2050.1259    3913.9967    4025.6387    3277.1607   -901.73591    742.66072   -373.01765    291.61658   -4708.8815    1094.3146    1191.1396    1106.9478    107.79373            0 
535700000    5.357e+08    296.02346    93093.952    3421.8158     0.942689    -1253.862     2054.217    2842.4609    3360.4524    4062.5343   -1007.3908   -276.67518    130.98779     296.0239   -4742.8856    1082.3633    1176.0629    1115.2017    115.39563            0 
535800000    5.358e+08    289.74137    93093.952    3331.5111     0.942689   -1319.1763    1918.7001    2338.4806    4486.2799    3169.7729    -1568.033    804.44349   -122.45365    289.74172    -4742.857    1036.4439     1149.056     1127.665    110.51581            0 
535900000    5.359e+08    298.85051    93093.952    4503.6512     0.942689   -1299.0757    2040.5958    3825.3622    4759.8218    4925.7698   -742.41966   -386.93406   -514.23643    298.85184   -4739.0524    1092.6543    1139.1532    1093.1948    114.97449            0 
536000000     5.36e+08     293.6101    93093.952     4434.186     0.942689   -1215.8858    2065.2238    4107.2383    4388.7828    4806.5368   -693.13549   -578.96246    454.14703    293.61024   -4762.3321    1090.3154    1196.7973    1148.9462    110.38747            0 
536100000    5.361e+08    288.70888    93093.952     4075.814     0.942689    -1269.695    1956.6431    3305.6595    4865.9501    4055.8324   -959.37837   -280.38397    -803.7993    288.71109   -4737.2895    1051.4499    1201.1315    1097.3106    117.70256            0 
536200000    5.362e+08    295.95449    93093.952    3246.5808     0.942689   -1288.1149    2019.1933    3244.4801    3361.5512    3133.7111   -645.15393   -219.85111    187.82749     295.9546   -4769.5245    1055.2664    1192.8137     1105.339     127.9905            0 
536300000    5.363e+08    290.06987    93093.952    3865.7196     0.942689   -1231.6477    2009.8996    3958.6058    3976.3752    3662.1777   -161.83234   -452.29411     158.2748    290.06976    -4717.037    1059.9275    1156.8939    1157.6441    110.92377            0 
536400000    5.364e+08    296.85167    93093.952    3919.4381     0.942689   -1269.7448    2047.5896    3599.1747    4558.8986    3600.2411   -1516.2863    45.262244   -199.99181    296.85073   -4743.3456    1077.0667    1182.4691    1092.0287     122.0364            0 
536500000    5.365e+08    290.76483    93093.952     3749.714     0.942689   -1270.5638    1978.7497    3398.6254    3987.1285     3863.388    22.867642    975.15449   -366.27358    290.76339   -4747.3837    1056.5321    1180.6729    1120.6365     118.9784            0 
536600000    5.366e+08    297.46055    93093.952    3864.5531     0.942689   -1242.8822    2081.2563    3505.0956    4308.6058    3779.9579   -869.37788   -447.56282   -802.88656    297.46121    -4724.437    1052.5235    1211.5205     1094.939    122.57178            0 
536700000    5.367e+08    300.13883    93093.952     4187.963     0.942689   -1223.2427    2130.8259    4107.0705    5052.8467    3403.9718   -451.21995    260.90432   -380.57491    300.13912   -4680.5329    1095.3601    1123.9189     1127.088    110.92315            0 
536800000    5.368e+08    294.23479    93093.952    4968.8039     0.942689   -1263.2541    2024.8364    4073.3718    5755.3768    5077.6631   -341.24209    -180.4608    393.79553     294.2348    -4738.137     1073.276     1149.588    1128.9194    123.09954            0 
536900000    5.369e+08    293.16002    93093.952    3840.7624     0.942689   -1234.0147    2042.0652    4325.9705    4015.5985    3180.7184    -1517.619    -338.0645    178.78268    293.16064   -4757.2441    1090.1279    1186.4092    1139.1691    107.52321            0 
537000000     5.37e+08    290.65355    93093.952    4855.5152     0.942689   -1260.2627    1987.8072    4041.7295    5683.0861    4841.7301   -726.53215   -197.37545   -282.67647    290.65374    -4753.002    1110.7782    1149.0919    1118.5927    114.27642            0 
537100000    5.371e+08    296.39107    93093.952    3588.4665     0.942689   -1207.6196    2104.5675    3811.4838    4358.8892    2595.0266   -444.76067   -355.31254    110.64508    296.39126    -4701.926    1067.8721     1175.986    1130.2078    120.24061            0 
537200000    5.372e+08    285.40824    93093.952    3995.1385     0.942689   -1251.0438    1938.4096    3934.0632    3598.4435    4452.9089   -823.79418    321.20856   -51.675917    285.40807   -4719.4701    1089.1226     1138.794    1127.8385     112.6713            0 
537300000    5.373e+08    295.60416    93093.952    3838.5824     0.942689   -1230.9373     2072.456    4447.6295    2953.1549    4114.9627   -817.51464    334.98599    127.75629    295.60545   -4727.9532    1073.2743    1177.5995    1138.3596    107.78246            0 
537400000    5.374e+08    292.99723    93093.952    3398.7229     0.942689   -1205.0898    2069.1709    3942.3023    3571.2069    2682.6594   -454.33738   -1142.3027   -672.57853    292.99844   -4752.4566    1082.5398    1197.7872    1147.9448    119.09507            0 
537500000    5.375e+08    290.95978    93093.952     4763.474     0.942689   -1249.0093    2002.4829    4310.3768    6046.5497    3933.4955   -311.23968   -371.44871    45.478026    290.96038   -4730.1769    1067.7247    1209.0063    1094.2709    110.16578            0 
537600000    5.376e+08    290.62708    93093.952    4069.8177     0.942689   -1255.2403    1992.5338    4414.6739    4201.3374     3593.442   -1090.0114    60.615995   -411.15999    290.62725   -4754.5455    1112.7124    1182.5967    1081.1233    122.87284            0 
537700000    5.377e+08    296.71125    93093.952    3950.1318     0.942689   -1200.0138    2115.7513    3514.7951    4555.5809    3780.0193   -802.89307   -418.74739    158.88388    296.71134   -4714.4441    1070.3796    1189.0551    1146.5451    108.45046            0 
537800000    5.378e+08    294.23072    93093.952    3258.5506     0.942689   -1262.3753    2025.6697    1765.4513    3621.7712    4388.4293   -1457.3798    463.91821    -377.0284    294.23169   -4748.0499    1107.4858    1147.7185    1107.1473    123.32296            0 
537900000    5.379e+08    286.37721    93093.952    4078.4982     0.942689   -1252.5222    1947.7594    4305.2936    3839.5804    4090.6207    -184.4283   -67.937667   -228.11301    286.37677    -4746.575      1087.48    1143.6984    1154.9173    107.95718            0 
538000000     5.38e+08    293.60275    93093.952    3646.5472     0.942689   -1368.3398    1912.6877    3906.1019     3676.064    3357.4756   -575.34938    22.718101    679.73961    293.60433   -4769.3518    1035.6474    1126.6138    1125.6973    113.05357            0 
538100000    5.381e+08    286.57438    93093.952    3119.5547     0.942689   -1300.5304    1901.9546    2813.0584    2850.1692    3695.4365   -828.75017   -476.49364    50.946331    286.57523   -4751.2396    1063.8337    1157.5167    1123.8784    105.48046            0 
538200000    5.382e+08    294.77632    93093.952    3452.8609     0.942689   -1295.5494    1998.5928    3031.3949     3898.623    3428.5649   -985.31356    51.744823   -48.916734    294.77619   -4721.9744    1043.6464    1126.9489     1142.071    113.75878            0 
538300000    5.383e+08    295.74493    93093.952    3661.0075     0.942689    -1307.916    1997.0505    3578.1623    3851.8648    3552.9954   -634.25037    245.64517    287.00283    295.74616   -4726.0288    1035.1995    1156.2067    1119.6133    107.09334            0 
538400000    5.384e+08    295.81523    93093.952    4517.1755     0.942689   -1275.9512    2029.8009    5032.9886    4116.1414    4402.3966   -686.40478   -26.519362   -40.970776    295.81332   -4778.3234    1097.2878    1200.7011     1083.851    120.53233            0 
538500000    5.385e+08    292.15527    93093.952     3260.324     0.942689   -1321.3042    1943.5476    2674.1195    3602.4107    3504.4419   -618.72531   -276.99446    94.663853    292.15579   -4738.9262    1029.5783    1167.8014     1110.297    109.94533            0 
538600000    5.386e+08     287.7768    93093.952    5018.3348     0.942689   -1284.3749    1931.5471    4982.0323    4466.6008    5606.3714   -1136.4068   -102.79655   -585.56686    287.77609   -4705.4528    1067.6832    1153.8566    1088.1694    111.36872            0 
538700000    5.387e+08    291.30813    93093.952    3786.6588     0.942689   -1221.9778    2033.4072    4187.7909    4135.8018    3036.3838    352.65447    113.79976   -375.38115    291.30696   -4712.7681    1044.3079    1184.9214    1150.8587    110.70228            0 
538800000    5.388e+08    294.99466    93093.952    4898.6953     0.942689   -1227.1935    2069.3886    4902.4005    5244.5519    4549.1335   -410.76339    256.81548    436.36145    294.99406   -4716.7482    1122.6885    1153.7013    1106.0853    107.07967            0 
538900000    5.389e+08    292.43047    93093.952    3590.2321     0.942689   -1182.4495    2085.4777    3020.1423    4036.0392    3714.5147   -747.07558   -115.68066    371.57705    292.43173    -4703.185    1094.0535    1195.8752    1118.8498     111.9571            0 
539000000     5.39e+08    288.58835    93093.952    4654.7373     0.942689   -1259.1262    1965.8649    4513.9703    4953.3449    4496.8969    881.68233   -630.47451    292.46478    288.58698    -4745.021    1067.8915    1165.2007    1134.4453    118.35721            0 
[...]
1503500000   1.5035e+09    292.64005    93093.952    4051.0777     0.942689   -1225.5685    2044.7008    4699.1326    4219.1881    3234.9125   -120.33344   -727.69658    246.81195    292.64101   -4708.9956    1079.9633    1180.9986    1117.3832    105.08196            0 
1503600000   1.5036e+09    292.27463    93093.952    4563.4409     0.942689   -1265.6934    2000.4922    3793.6022     4935.996    4960.7245   -990.26889     11.69483   -382.54052     292.2745   -4729.5787    1051.6828    1181.5879    1114.5106    116.10398            0 
1503700000   1.5037e+09     288.3706    93093.952     4221.674     0.942689   -1162.7265    2059.8313    4303.9596    4201.0297    4160.0328    -996.9604    114.30152    562.71103    288.37089   -4733.8328    1097.6611    1207.6427    1152.2948    113.50773            0 
1503800000   1.5038e+09    289.68291    93093.952    3595.0748     0.942689   -1275.7805    1961.4425    3930.5867    4416.5911    2438.0467   -370.22384    77.680357    534.76209    289.68212   -4736.1637     1054.235    1147.7161    1139.9796    118.45241            0 
1503900000   1.5039e+09    299.63575    93093.952      4657.91     0.942689   -1195.1376    2153.3089     4344.891    4626.8397    5001.9992   -616.98488     88.94958    436.88758    299.63579   -4705.9028    1052.9309    1158.2572     1196.204    103.37309            0 
1504000000    1.504e+09    298.01622    93093.952    4743.0973     0.942689    -1147.549    2182.7992    5104.6561    4702.8092    4421.8267    -503.0507    108.12067    860.91399    298.01628   -4715.6092    1105.2262    1183.0551    1171.5503    108.22869            0 
1504100000   1.5041e+09    294.81755    93093.952    4669.1403     0.942689   -1163.1379    2131.4649    4991.2752    4379.8837    4636.2619   -779.53856    425.23333   -66.935659    294.81733   -4709.1709    1119.8764    1159.2602    1152.3655    114.53084            0 
1504200000   1.5042e+09    291.17889    93093.952    3798.4911     0.942689   -1117.3601    2136.5805    3480.9423    3636.6756    4277.8554    -480.1551    336.13183   -670.97967    291.17814   -4713.8424    1074.0407    1250.4098    1159.6772    112.35452            0 
1504300000   1.5043e+09    296.31267    93093.952    4423.1809     0.942689   -1147.8373    2163.4736    4054.8351    4179.7414    5034.9662   -919.28588   -309.33121    91.011176    296.31286   -4695.1672    1072.3832    1210.6584    1148.7783    115.50993            0 
1504400000   1.5044e+09    288.99961    93093.952    4399.7377     0.942689   -1186.6845    2042.9025    4191.0102    3857.0845    5151.1184   -388.24292   -919.11379     534.9535    288.99882   -4699.7619    1049.5855     1178.659    1167.5014    117.33139            0 
1504500000   1.5045e+09    293.31567    93093.952    4737.3921     0.942689   -1216.0742    2061.7451    4047.0464    4629.9371    5535.1929   -1604.5906    474.13679    86.075029    293.31727   -4743.7328    1079.0895    1188.4111    1148.7694    111.38856            0 
1504600000   1.5046e+09    286.71862    93093.952    3098.8695     0.942689   -1178.3197    2025.7772    2491.5403     3393.254    3411.8142   -774.65787    1149.7337    403.54538    286.71887   -4702.5014    1033.4864    1218.7442    1153.8605    118.09054            0 
1504700000   1.5047e+09    294.69459    93093.952    5064.4206     0.942689   -1244.2649     2048.964    4665.3011    4819.1217    5708.8389   -297.55111    426.86397   -159.85585    294.69553    -4684.432    1054.0422    1127.9833    1142.0389    116.10264            0 
1504800000   1.5048e+09    290.51217    93093.952    3938.1715     0.942689    -1283.921     1962.569    3849.7106    3312.0905    4652.7134    478.23029   -19.641828    1092.8902    290.51169   -4737.1728    1094.3316    1124.9708    1121.4373    112.51213            0 
1504900000   1.5049e+09    290.89459    93093.952    4320.4322     0.942689   -1280.4284    1970.3352    4718.8036    4053.8826    4188.6103   -266.43705    321.13789   -105.06809    290.89281   -4715.3514    1044.3573    1162.3642    1121.8162    106.38538            0 
1505000000    1.505e+09    293.16069    93093.952    4436.1817     0.942689    -1238.853    2037.2345    4195.1543    4292.3702    4821.0207    -572.4623    457.23455   -166.73811    293.15954   -4694.2369    1043.2584     1164.248    1135.5731    112.30449            0 
1505100000   1.5051e+09    287.46495    93093.952    3533.0357     0.942689    -1259.924    1952.5132    3292.1266     3971.083    3335.8975   -1390.3692    495.34065    741.28525    287.46629   -4747.9754     1071.154    1196.9042    1112.8003    107.19298            0 
1505200000   1.5052e+09    296.23727    93093.952    4187.6295     0.942689    -1190.342    2120.1264    3663.6656    4743.9171    4155.3059   -124.13004   -476.17181   -22.981716    296.23752   -4710.2946    1111.6511    1177.7405    1114.3203    116.24068            0 
1505300000   1.5053e+09    290.98975    93093.952    4953.3099     0.942689   -1160.0559     2091.771    4617.0189    5170.7457     5072.165   -111.70036   -328.04445    81.121106    290.99128   -4675.4477    1061.7704    1210.2736    1124.9068    118.44102            0 
1505400000   1.5054e+09     290.7444    93093.952    4394.7166     0.942689   -1186.2593    2062.8259    3907.3279    4237.6498    5039.1722   -670.56038   -10.311154   -178.81301    290.74577   -4703.1517    1054.5851     1158.072    1191.7703    112.46496            0 
1505500000   1.5055e+09    295.78187    93093.952    4232.7355     0.942689   -1229.8931    2075.4862    4545.3123    4587.0099    3565.8843   -148.60991    4.1674193    98.363157    295.78144   -4684.8442    1076.3836    1157.3971    1107.9456    113.22477            0 
1505600000   1.5056e+09    292.11897    93093.952    5487.8911     0.942689   -1231.9673    2032.4788    4929.3454    5870.2485    5664.0793   -274.42725    700.34498    1252.9681    292.11976   -4683.2008    1060.8547     1135.385    1142.3584    112.63529            0 
1505700000   1.5057e+09     284.4437    93093.952    4655.4767     0.942689   -1160.9501    2017.7244    4161.9915    5382.5947    4421.8438   -797.76623    329.55538    86.742161    284.44503   -4718.9675     1077.898     1213.899    1155.6603    110.56008            0 
1505800000   1.5058e+09    294.35095    93093.952    3328.9819     0.942689   -1224.1747     2065.214    2739.5652    4123.4325     3123.948   -998.05079    942.44054    786.70305     294.3518    -4708.515    1052.8735    1145.3664    1174.5846    111.51573            0 
1505900000   1.5059e+09     297.7548    93093.952    3591.7306     0.942689   -1275.8158     2051.611    3083.5283    4370.4606     3321.203   -329.96916    211.02946   -250.19819    297.75559   -4708.0187    1055.0934    1108.9332     1158.665    109.51111            0 
1506000000    1.506e+09    290.79023    93093.952    3919.9545     0.942689   -1231.6985    2017.8989    3047.9989    4740.2119    3971.6526   -1181.9517    172.65547    668.44876    290.79074    -4720.795    1039.5975    1178.6701    1164.2332    106.59565            0 
1506100000   1.5061e+09    296.71966    93093.952    3666.2499     0.942689   -1200.4591       2115.4    3615.0004     3458.654    3925.0954   -712.66221    783.61168    326.97265    296.72032   -4716.7761    1057.0568    1199.3327    1151.0914    108.83616            0 
1506200000   1.5062e+09    288.78216    93093.952    4318.9778     0.942689   -1202.7976    2024.3594    3101.2248    5040.1513    4815.5572   -358.11676    106.51194    849.46193     288.7829   -4678.1003    1077.8496    1151.5655     1132.144    113.74363            0 
1506300000   1.5063e+09    291.43157    93093.952    3664.2723     0.942689   -1218.8294    2037.9349    2853.0852    4331.8371    3807.8948   -315.37407    384.01293    686.07073    291.43213   -4708.3971    1088.9202    1126.2507    1163.3969    110.99979            0 
1506400000   1.5064e+09    292.61243    93093.952    4680.0282     0.942689   -1120.7426     2149.218    3802.8504    4481.1527    5756.0815   -2098.0134    46.612525    350.85697    292.61282   -4701.3088    1080.0901    1194.9621    1185.5435    119.97046            0 
1506500000   1.5065e+09    290.62946    93093.952    4220.0602     0.942689   -1151.0694    2096.7313    4481.4373    4233.3138    3945.4295   -565.08525   -134.54919    626.96767    290.63042   -4707.6391     1028.114    1179.7502     1239.627    109.07846            0 
1506600000   1.5066e+09    286.62719    93093.952    3821.0439     0.942689   -1143.5791     2059.496    3434.8345    4579.4133    3448.8838    181.40264   -999.27326    97.335517    286.62682   -4694.1325    1071.2028     1167.655    1207.7414    103.95421            0 
1506700000   1.5067e+09    299.06367    93093.952    3824.4193     0.942689   -1243.2925     2098.761    2868.3998    4187.9763    4416.8817   -391.98218   -555.85366   -457.98129    299.06315   -4713.3699    1070.9443    1174.5022    1111.7767    112.85417            0 
1506800000   1.5068e+09    295.18199    93093.952    3787.4778     0.942689   -1240.4677    2058.2079    2915.3923    4722.4376    3724.6034   -385.72473    145.65001   -576.27368    295.18328   -4692.3356    1061.1831    1151.7195    1130.4981    108.46728            0 
1506900000   1.5069e+09     290.6434    93093.952    3995.1557     0.942689   -1161.1896    2086.7669    3935.5028    3452.3547    4597.6097   -1241.3609   -232.56289    -157.0818    290.64436   -4687.7429      1043.12    1206.2178    1170.2603    106.95521            0 
1507000000    1.507e+09    287.99152    93093.952    4264.7089     0.942689   -1318.6136    1899.7079    3704.4832    5549.2672    3540.3762    19.627816     387.3108    224.35387    287.99205   -4735.0726    1046.2494    1118.0969    1140.1544     111.9582            0 
1507100000   1.5071e+09    290.15867    93093.952    4972.4298     0.942689   -1235.5081    2007.0316    5220.2837    5376.3954    4320.6105    321.65349   -80.037967    50.034766    290.15845   -4714.2593    1064.6331    1139.9309    1165.2769    108.91022            0 
1507200000   1.5072e+09    291.11598    93093.952    4557.6273     0.942689   -1211.3417    2041.8959     4426.244    4213.6202    5033.0176   -212.64951   -252.59754   -761.13024    291.11499   -4734.3143    1104.6357    1125.7464    1174.0082    118.58239            0 
1507300000   1.5073e+09    296.22831    93093.952    4756.0135     0.942689   -1191.1325    2119.2357    4567.5371    4618.0625    5082.4408   -155.18073    59.553749   -536.31343    296.22788   -4734.6497    1075.4685    1164.4216    1193.4522    110.17501            0 
1507400000   1.5074e+09    289.28977    93093.952    3608.0941     0.942689   -1249.4487    1983.3809    3333.3938    3772.9219    3717.9667     -200.027    217.34212    165.17674    289.28966    -4719.944    1024.0158    1174.6655    1155.8889    115.92499            0 
1507500000   1.5075e+09    288.65175    93093.952    3829.4353     0.942689   -1209.8278     2015.872    2881.3761    4687.2287     3919.701    -930.3348    136.58994    8.8781999     288.6506    -4709.834    1085.0576    1176.7771    1131.2337    106.93777            0 
1507600000   1.5076e+09    284.65524    93093.952    4375.1684     0.942689   -1187.9725     1993.066    4502.6551    4572.6661    4050.1841    -463.8174   -205.10265    -555.5566    284.65539   -4713.1577    1074.2585    1183.4772    1149.5987    117.85085            0 
1507700000   1.5077e+09    290.40929    93093.952    3933.5585     0.942689   -1108.3256    2137.0147    4772.1134    3542.2252    3486.3369   -577.88605    415.58355     574.4355    290.40843     -4734.06    1128.9062    1187.5488    1198.9179    110.36151            0 
1507800000   1.5078e+09    293.73834    93093.952    4011.8912     0.942689   -1175.7603    2106.7823    3920.1925    3431.4397    4684.0413   -770.28362   -230.73942   -486.53375    293.73965   -4735.3448     1068.378    1189.7604    1186.5991    114.84691            0 
1507900000   1.5079e+09    287.83258    93093.952    4133.9481     0.942689   -1156.1937    2060.3517    3553.3608    4168.3216     4680.162   -1421.4351   -464.37554   -151.13222    287.83244   -4715.4449    1078.2993    1197.2434    1168.1451    115.56328            0 
1508000000    1.508e+09    296.15833    93093.952    4740.9619     0.942689   -1305.3681    2004.2182    5736.8231    4415.4736     4070.589   -974.13866    196.58139    209.61406    296.15849   -4727.3674    1023.2909    1158.0556     1131.805    108.84783            0 
1508100000   1.5081e+09    291.46981    93093.952    3327.3828     0.942689   -1217.5874    2039.6043    2929.8945    3343.3717    3708.8822   -1268.5557   -221.46089   -543.18117    291.46776   -4730.9631    1057.6867    1206.3934    1135.7944    113.50117            0 
1508200000   1.5082e+09     299.1778    93093.952    4249.0337     0.942689   -1214.4764    2128.8525    4928.5458    3972.8331    3845.7222   -977.61101    194.01234   -87.824391    299.17851    -4739.634    1128.5841    1133.8129    1156.3826    106.37804            0 
1508300000   1.5083e+09    294.93013    93093.952    4014.5324     0.942689   -1280.6346    2015.2263    3185.8936    3667.5245    5190.1789   -373.01898   -342.74733    950.25516    294.92993   -4748.6593    1061.6215    1155.2553    1132.7885     118.3594            0 
1508400000   1.5084e+09    290.25833    93093.952    3515.0528     0.942689   -1148.0188    2095.6345     2504.124    4396.5019    3644.5324   -1092.9864    306.76818    255.04158    290.25595   -4711.9838    1105.7014    1187.5527    1159.6938    111.01706            0 
1508500000   1.5085e+09    298.91066    93093.952    4248.5888     0.942689   -1183.5455    2156.7981     5259.048    4011.3245    3475.3939    -897.5064    23.577961   -355.88346    298.91149   -4747.0191    1094.0528    1185.8579    1179.0934    104.46945            0 
1508600000   1.5086e+09    286.81651    93093.952    3512.4759     0.942689   -1249.7772    1955.4136    3300.3584    3615.8444    3621.2248   -593.48975    331.60525     4.697904    286.81484   -4723.7331    1053.8266    1174.1266    1135.8226    110.18003            0 
1508700000   1.5087e+09    288.23532    93093.952    4049.6717     0.942689   -1172.6329    2048.4131    3378.4309    4311.6166    4458.9674    -1185.719    315.33587    668.33935    288.23492   -4682.4127    1080.2773    1162.9934    1160.7756    105.73348            0 
1508800000   1.5088e+09    292.40244    93093.952    5087.2874     0.942689   -1209.6904    2057.9235    5098.9524    5412.1658    4750.7441   -635.23145     532.4243    948.68156     292.4021   -4718.9559    1080.2759    1145.0532    1167.9922    115.94413            0 
1508900000   1.5089e+09      287.265    93093.952    4244.8175     0.942689   -1209.7969    2000.4058    3788.4192    5049.0668    3896.9664   -644.71667    480.20857    875.22553    287.26581    -4729.416    1068.8679    1187.1546    1152.4494    111.14735            0 
1509000000    1.509e+09    299.48037    93093.952    3971.9414     0.942689   -1228.8679    2117.8423    3289.7177    4325.8737    4300.2327    -455.9339    36.444555   -323.30811    299.48041   -4694.4278    1079.0531    1166.3668    1112.5125    107.62745            0 
1509100000   1.5091e+09    288.53033    93093.952    4051.8026     0.942689   -1165.2717    2059.0711    2616.1277    4710.0225    4829.2576   -165.00612    130.18906   -85.587417    288.52958   -4712.8562    1063.8988    1206.3168    1150.4825     126.8864            0 
1509200000   1.5092e+09    289.60529    93093.952    4682.8057     0.942689   -1284.6949    1951.6607    3793.5998    4986.2641     5268.553    -625.0785    104.19934    963.10718    289.60491   -4753.3657    1040.9161    1153.8113    1160.9499    112.99362            0 
1509300000   1.5093e+09    292.01763    93093.952    4050.6396     0.942689   -1143.7013    2119.6124    4412.7244    3738.2813    4000.9131   -536.05529    481.10241   -525.36757    292.01725    -4694.397     1109.165    1187.4949    1145.8508    108.18504            0 
1509400000   1.5094e+09    288.92323    93093.952    4425.9441     0.942689   -1137.3908    2091.3427    4693.7973    4326.7633    4257.2718   -548.37306   -1257.4368    -296.5988    288.92245   -4715.9737    1094.6814     1196.222    1171.7982    115.88124            0 
1509500000   1.5095e+09    294.46723    93093.952    3978.8469     0.942689   -1244.3464    2046.3417    4071.7213     4743.321    3121.4986   -471.41541    525.92128   -200.94753    294.46724   -4742.7026    1089.0562    1146.1674    1151.7676      111.365            0 
1509600000   1.5096e+09    296.41167    93093.952    4083.2051     0.942689   -1188.9465    2123.4708    3720.9659    4145.4791    4383.1703   -492.39357   -230.03046   -38.987195    296.41249   -4711.8576    1132.5969    1154.4499    1120.9112    114.95302            0 
1509700000   1.5097e+09    296.19324    93093.952Generated thermo.dat
Done!
stress
average  550.909
square average  307647
number of blocks  600
variance  2.62877465719930686746
pxx
average  3779.54
square average  1.42969*10^07
number of blocks  600
variance  4.46792054539916812966
pyy
average  4363.29
square average  1.90437*10^07
number of blocks  600
variance  3.00010441484958986418
pzz
average  4184.17
square average  1.75132*10^07
number of blocks  600
variance  3.14149940315130411771
xx
average  2181.82
square average  4.76036*10^06
number of blocks  600
variance  .18924234903072479738
yy
average  2183.69
square average  4.76852*10^06
number of blocks  600
variance  .17312760226684440124
zz
average  2183.07
square average  4.76578*10^06
number of blocks  600
variance  .15612441619853485725
xx
average  2172.52
square average  4.73176*10^06
number of blocks  600
variance  4.45661485883624455700
yy
average  2754.89
square average  7.59483*10^06
number of blocks  600
variance  3.00307839280517839320
zz
average  2576.23
square average  6.64285*10^06
number of blocks  600
variance  3.13288660822571106345
pressure, stress.strain, ktensor, virial are all concatenated
averages computed will all accumulated data until now
    4061.9564     0.942689   -1204.7446    2105.2317    4274.2482    3627.0878    4284.5333    -678.8655    358.44003    241.18846    296.19189   -4723.8012    1085.4687    1155.3765     1166.887    111.32447            0 
1509800000   1.5098e+09    289.34968    93093.952    4566.6213     0.942689   -1152.9804    2080.5187    3379.4074    5368.5305    4951.9261   -1495.5906   -642.89113   -335.19178    289.35095   -4720.2142     1076.662    1169.8543    1196.9528    123.76467            0 
1509900000   1.5099e+09    291.88014    93093.952    4450.8575     0.942689   -1117.7562     2144.021    4073.3801    3758.0209    5521.1714   -1079.7292      -140.99    120.69302    291.88038   -4719.2574     1126.012    1176.9167    1170.7143    127.85821            0 
1510000000     1.51e+09    286.55428    93093.952    4027.4574     0.942689   -1201.7359    2000.5245    2589.1277    4872.6494    4620.5949   -157.44241    442.75565   -633.68098    286.55335    -4676.999     1073.233    1168.8343    1121.9207    111.27504            0 
Loop time of 62864.8 on 48 procs for 200000000 steps with 3750 atoms

Pair  time (%) = 22099.4 (35.1539)
Bond  time (%) = 4070.16 (6.47447)
Neigh time (%) = 11961.4 (19.0272)
Comm  time (%) = 18076.4 (28.7543)
Outpt time (%) = 1.21633 (0.00193483)
Other time (%) = 6656.19 (10.5881)

Nlocal:    78.125 ave 87 max 69 min
Histogram: 2 6 5 5 5 5 5 6 6 3
Nghost:    1381.06 ave 1412 max 1358 min
Histogram: 4 1 10 5 11 8 5 1 1 2
Neighs:    6958.83 ave 7905 max 6023 min
Histogram: 2 5 8 2 7 8 5 4 4 3

Total # of neighbors = 334024
Ave neighs/atom = 89.0731
Ave special neighs/atom = 6.26667
Neighbor list builds = 22288868
Dangerous builds = 0
System init for write_restart ...

real	5246m23.919s
user	0m0.063s
sys	0m0.216s
