LAMMPS (10 Feb 2015)
Read molecule SQL:
  30 atoms with 4 types
  29 bonds with 1 types
  34 angles with 1 types
  31 dihedrals with 2 types
  6 impropers with 1 types
Reading restart file ...
  restart file = 10 Feb 2015, LAMMPS = 10 Feb 2015
  triclinic box = (111.702 111.702 111.702) to (158.298 158.298 158.298) with tilt (-1.42109e-12 0 0)
  3 by 4 by 4 MPI processor grid
  3750 atoms
  3625 bonds
  4250 angles
  3875 dihedrals
  750 impropers
250 atoms in group endatoms
Resetting global state of Fix shear1 Style nvt/sllod from restart file info
Neighbor list info ...
  1 neighbor list requests
  update every 1 steps, delay 0 steps, check yes
  master list distance cutoff = 10.3
Setting up run ...
Memory usage per processor = 5.70253 Mbytes
Step dummytim Temp Volume Press Density PotEng TotEng Pxx Pyy Pzz Pxy Pyz Pxz myT molPE1 molPE2 molPE3 molPE4 molPE5 molPE6 
710000000      7.1e+08     290.5553    101167.02    1141.7789     0.867463   -1196.0281    2050.9438    1407.6711    534.19719    1483.4684    92.741302    64.916758        525.9    290.57826   -4563.8752    1061.7208     1143.162    1054.5601    108.40411            0 
710100000    7.101e+08    287.06745    101167.02    1274.6796     0.867463   -1254.1498    1953.8453    660.54353    1396.2124    1767.2829   -183.16281    147.14365   -302.17198    287.08989   -4554.3089    1014.2993    1120.3027    1047.3886    118.16861            0 
710200000    7.102e+08    293.76034    101167.02    1257.4122     0.867463    -1189.517    2093.2715    1105.9113    1044.1017    1622.2238   -636.81957   -123.57342   -32.681514    293.78362   -4562.9809    1087.1656     1126.791    1045.0863    114.42103            0 
710300000    7.103e+08    292.16722    101167.02    1532.5558     0.867463   -1193.9408    2071.0446    1529.4478     1833.851    1234.3686    -325.7439    230.51362    85.485615    292.19116   -4554.0144     1063.945    1138.1953    1043.4741    114.45921            0 
710400000    7.104e+08    290.03858    101167.02    1045.4219     0.867463   -1229.3982    2011.7994    593.70201    1569.1604    973.40317    68.505375    135.72456   -136.12923     290.0616   -4524.0275    1054.9189    1110.5304    1022.5675    106.61246            0 
710500000    7.105e+08    292.61112    101167.02    646.06847     0.867463   -1179.1542    2090.7918    985.38808    782.91017    169.90716    360.06444    545.48049    374.73523    292.63437    -4514.738    1066.0729    1132.4418     1038.377    98.692113            0 
710600000    7.106e+08    289.64697    101167.02    728.22113     0.867463   -1209.3344    2027.4869    656.34689    740.99993    787.31658   -230.89277     147.6309     153.3259    289.66971   -4563.6646    1028.1791    1141.3828    1076.0182    108.75006            0 
710700000    7.107e+08    296.83971    101167.02    307.52911     0.867463   -1286.4521    2030.7486   -340.87376    1157.2218    106.23932   -144.52571    618.87706    169.65697     296.8623   -4563.7043    1034.9164    1117.3835    1017.7619    107.19035            0 
710800000    7.108e+08    283.65156    101167.02    847.38313     0.867463   -1287.3842    1882.4381    1342.0143    685.72588    514.40922    468.82809   -71.331678    96.857077    283.67509   -4556.2812    1015.9438     1136.631    1008.9421    107.38011            0 
710900000    7.109e+08    296.69789    101167.02    50.392884     0.867463    -1235.599    2080.0168    16.650321    193.32409   -58.795761    20.202863    265.01946   -379.81099    296.72053   -4593.9424    1081.6959    1126.9377     1036.391    113.31883            0 
711000000     7.11e+08    294.59143    101167.02    985.03603     0.867463   -1223.9324    2068.1436    1167.9045    575.00777    1212.1958    804.91279   -174.70969    969.57304    294.61347   -4572.3496    1040.1265    1187.3828    1011.0986    109.80931            0 
711100000    7.111e+08    297.18881    101167.02    1000.2672     0.867463   -1229.4632    2091.6386    492.53506    1350.6281    1157.6383   -22.823923   -212.68607     1216.652    297.21248   -4553.3781    1040.0004    1139.7155    1038.8226    105.37644            0 
711200000    7.112e+08    296.02982    101167.02    1209.9678     0.867463   -1268.7458    2039.4043    882.84345    1955.3107    791.74912    390.59324    34.424132   -649.01566    296.05226   -4546.0159    1027.7754    1112.4699    1022.0735    114.95133            0 
711300000    7.113e+08    290.91453    101167.02    1160.8863     0.867463   -1322.9283    1928.0581     1634.018    1385.2401    463.40067    169.68573    215.94909    861.28003    290.93622   -4558.7755    1026.1939    1100.5312     1010.209    98.913054            0 
711400000    7.114e+08    295.50064    101167.02    1046.2484     0.867463   -1226.1279    2076.1086     1505.877    905.35856    727.50969    42.302976      304.682    61.397064    295.52563   -4557.1587    1038.4484    1193.4413    981.97219    117.16884            0 
711500000    7.115e+08    297.82615    101167.02    1057.3875     0.867463   -1303.2109    2025.0133    429.72032    1475.4331     1267.009   -803.14531   -34.504935   -134.16616    297.84996   -4568.6565     1044.187     1086.073    1029.0072    106.17854            0 
711600000    7.116e+08    297.60379    101167.02    1105.3065     0.867463   -1292.7173    2033.0219    482.89937    831.08938    2001.9306   -672.09036   -519.16408   -683.85643    297.62533    -4572.808    1048.7247    1113.8046    1004.5043    113.05714            0 
711700000    7.117e+08    292.42075    101167.02    1473.3571     0.867463   -1190.3929    2077.4256    1866.0389    1576.4332     977.5992    531.55448    852.11602    86.885538    292.44243   -4565.4185    1087.3973    1136.7358    1031.5319    119.36039            0 
711800000    7.118e+08     295.4239    101167.02    1425.2861     0.867463   -1245.5331    2055.8458     1352.875    1694.7088    1228.2744    376.73904    484.88932     256.3218    295.44685   -4550.6067    1053.3462    1154.2166    992.51651    104.99434            0 
711900000    7.119e+08    293.35611    101167.02    1341.6848     0.867463   -1278.4221    1999.8491    1433.9249    984.14628     1606.983   -7.8162783    534.39648    281.53364       293.38    -4564.165    1026.2897    1135.5567    1016.5428    107.35371            0 
712000000     7.12e+08    292.59145    101167.02    1152.1486     0.867463   -1316.9198    1952.8063    1334.0149    953.53966    1168.8912   -203.84597   -448.78397    788.99237      292.614   -4565.8447     1018.229    1107.8198    1013.9936    108.88244            0 
712100000    7.121e+08    296.45048    101167.02    1367.0362     0.867463   -1173.8978    2138.9532    1585.4044     1021.127    1494.5771    508.16197   -233.07763   -556.71685    296.47584    -4536.222    1043.3467    1165.0112    1031.7495    122.21663            0 
712200000    7.122e+08    292.27098    101167.02    528.61337     0.867463   -1202.0056    2064.1392   -396.36391     454.8414    1527.3626    333.76912    129.97532    648.44199    292.29597    -4567.097    1053.8551    1162.2337    1040.1443    108.85827            0 
712300000    7.123e+08    294.32707    101167.02    277.86164     0.867463   -1198.7743    2090.3475    1141.7502    51.262079   -359.42733   -390.38494   -804.89031    -520.3634    294.35143   -4574.7432    1074.5127    1148.1415    1035.4176    117.89717            0 
712400000    7.124e+08    294.70199    101167.02    554.45021     0.867463   -1173.4016    2119.9099    642.95965     1248.543   -228.15202    228.77196   -165.62541    574.43838    294.72633   -4557.8583    1106.9424    1149.8048    1014.3349    113.37456            0 
712500000    7.125e+08    294.42574    101167.02    960.68279     0.867463   -1138.0139    2152.2105    639.58685    1011.9057    1230.5558   -416.02271    518.07376    -51.69855    294.44929   -4522.7434    1052.7639     1159.186    1067.2572    105.52235            0 
712600000    7.126e+08    294.39385    101167.02    475.22218     0.867463   -1297.2101     1992.658    14.388852    1292.4299    118.84779   -210.01721    92.235099    65.014025     294.4165   -4538.0335    1019.4576    1096.4587    1023.9397    100.96738            0 
712700000    7.127e+08    296.24351    101167.02    1035.9629     0.867463   -1182.0494    2128.4887    708.33005     1105.134    1294.4245   -473.79899   -371.09566   -281.53385    296.26525    -4550.448    1049.1981    1119.3846    1094.4098    105.40615            0 
712800000    7.128e+08     295.0694    101167.02    843.57905     0.867463   -1168.8106    2128.6067    441.72803    954.94384    1134.0653    378.02294   -40.885748    603.12706    295.09229    -4537.192    1052.0712    1162.2275     1039.305    114.77785            0 
712900000    7.129e+08     294.4148    101167.02    127.32507     0.867463   -1208.4286    2081.6735   -7.2797654   -319.89507    709.15005   -55.390488    429.43318     549.1597    294.43771   -4572.3395    1064.4724    1144.8875    1046.7227    107.82831            0 
713000000     7.13e+08    292.19428    101167.02    1320.9445     0.867463   -1292.1388    1973.1489    1044.6681     1204.039    1714.1264   -522.31728    192.62067   -540.95093    292.21845   -4513.0299    1021.9813    1109.3495    976.83301    112.72724            0 
713100000    7.131e+08    295.21402    101167.02    607.80942     0.867463   -1209.2456     2089.788   -284.28578    566.62654    1541.0875    410.24286   -154.81666   -446.75029    295.23625    -4576.483    1077.4558    1127.8602    1054.6191    107.30235            0 
713200000    7.132e+08    297.97963    101167.02    822.90567     0.867463   -1259.9383     2070.001    1002.1116    989.43138    477.17407    448.94608   -86.891011   -1257.7728    298.00383   -4596.4074    1045.7184    1105.3809    1077.6593    107.71047            0 
713300000    7.133e+08    294.92364    101167.02    553.77419     0.867463   -1237.0701    2058.7184   -159.30207    1019.3675    801.25712   -476.28161   -35.567254   -735.13126    294.94758   -4574.6328    1013.6868    1179.1361    1030.2935     114.4463            0 
713400000    7.134e+08    294.28853    101167.02    469.21775     0.867463    -1170.641      2118.05    364.84603    501.11755    541.68968   -445.69681     2.339275   -313.35859    294.31135    -4533.969    1078.8647    1150.2684    1018.8708    115.32411            0 
713500000    7.135e+08    296.76088    101167.02    1751.7189     0.867463   -1258.2805    2058.0391    985.77262    1958.7501     2310.634   -207.96636    298.58594    -802.8279    296.78436   -4538.4365    1049.0347    1103.2342    1021.1673    106.71972            0 
713600000    7.136e+08    289.77258    101167.02    225.54423     0.867463   -1253.3783    1984.8467   -87.751491    328.10334    436.28083    263.42242      177.642   -50.606072    289.79474   -4591.5077    1051.8491    1103.6373    1070.8669    111.77599            0 
713700000    7.137e+08    287.44872    101167.02    1127.8721     0.867463   -1144.6124    2067.6434    977.26015    1430.9917    975.36436   -629.44913    148.02917    147.56714    287.47125   -4548.6267    1090.7839    1128.6799    1070.9798     113.5707            0 
713800000    7.138e+08    301.68888    101167.02    1115.3716     0.867463   -1201.2852    2170.1052    825.61755    1330.4599    1190.0373    496.32307    606.43504    486.75976    301.71127   -4561.2819    1005.4492    1169.8109    1075.8268    108.90983            0 
713900000    7.139e+08    299.85833    101167.02    1303.9073     0.867463   -1105.0103    2245.9236    1688.0173    1336.4323    887.27227    357.79046   -8.9642221   -42.331039    299.87969   -4532.1087    1047.0941    1165.4447    1105.8055    108.75412            0 
714000000     7.14e+08    293.69168    101167.02    900.34775     0.867463   -1150.8446    2131.1766    982.22343     1043.451    675.36885   -471.81524    381.46365    157.40347     293.7166   -4538.8425    1065.4324    1132.3467    1077.5637    112.65507            0 
714100000    7.141e+08    296.88272    101167.02    753.16197     0.867463    -1065.199    2252.4823    1066.0803    136.19708    1057.2085   -703.06473    785.37339   -605.65709    296.90633   -4541.6478    1090.5392    1156.5529    1120.4576    108.89921            0 
714200000    7.142e+08    294.84992    101167.02     920.3911     0.867463   -1178.1346      2116.83     916.6365    214.71732    1629.8195    585.11408   -214.67323   -108.27809    294.87286   -4525.4364    1036.8476    1139.6668    1058.1433    112.64406            0 
714300000    7.143e+08    296.77573    101167.02    408.25907     0.867463   -1180.9445    2135.5411    1145.5246    -36.31508     115.5677    264.55668    195.37385   -1547.6895    296.79806   -4515.1686    1029.2746    1178.7968    1015.7107    110.44199            0 
714400000    7.144e+08    292.60656    101167.02    913.73203     0.867463   -1232.5719    2037.3231    244.86366    1345.7069    1150.6255    288.65592    164.62426   -109.86653    292.62926   -4532.9794    1064.0013    1108.5617    1033.8668     93.97776            0 
714500000    7.145e+08    295.47052    101167.02    400.67025     0.867463    -1320.726    1981.1739   -259.04373    943.30945    517.74501   -165.98806    289.68794    700.51761    295.49348   -4551.9371    1016.7972    1134.1402    968.39192    111.88184            0 
714600000    7.146e+08    286.17862    101167.02     1432.595     0.867463   -1351.8317    1846.2306    1105.3656     1326.492    1865.9274   -193.41707   -419.56152   -703.57274    286.20077   -4560.4268    1013.7794    1120.2967    966.21826    108.30069            0 
714700000    7.147e+08    287.94139    101167.02    395.15034     0.867463   -1241.4097    1976.3516    1437.4314     136.3774   -388.35773   -364.61058    443.24067    446.03807    287.96365   -4566.6448     1070.001    1130.2013    1014.9623    110.07051            0 
714800000    7.148e+08     295.6694    101167.02    874.06247     0.867463   -1248.0335    2056.0888    977.03267    1060.4813    584.67349    219.46788    260.30352    745.33374    295.69278   -4545.8001     1065.852    1091.0489    1027.2809    113.58471            0 
714900000    7.149e+08    287.41451    101167.02    1331.0691     0.867463   -1269.2794     1942.594    694.31098    1334.6942     1964.202   -15.900515   -238.61512    598.36326    287.43563   -4541.4381    1020.9962    1111.3351    1028.3148    111.51262            0 
715000000     7.15e+08    306.91125    101167.02    1403.1964     0.867463   -1206.4955    2223.2552    1323.7012    837.18219    2048.7058   -891.92393    298.09836    232.49862    306.93273   -4540.7968    1052.0753    1133.3307    1044.1229    104.77242            0 
715100000    7.151e+08    292.76106    101167.02    660.59504     0.867463   -1214.9343    2056.6871   -496.33793    881.70646    1596.4166   -8.0294945     121.8655   -65.679712    292.78246   -4533.7992      1040.51    1151.4249    1010.0568    116.87315            0 
715200000    7.152e+08    285.90626    101167.02    36.193111     0.867463   -1199.1994    1995.8193    -169.8863    15.335982    263.12965   -685.11704   -378.08395   -189.79016    285.92748   -4506.0847    1054.9251    1126.9628    1012.1209    112.87658            0 
715300000    7.153e+08    294.09816    101167.02    461.87581     0.867463   -1251.4436    2035.1201    356.62263    30.062903     998.9419   -411.17213    6.9070746    450.58897    294.12228   -4528.0277    1022.9825     1124.768    1026.7053    102.12833            0 
715400000    7.154e+08    292.65962    101167.02    1288.6155     0.867463   -1133.6468    2136.8411    1575.3106    715.08112    1575.4547    156.33277   -18.021389   -155.64364    292.68173   -4537.5272    1095.4328    1131.1709     1072.184    105.09275            0 
715500000    7.155e+08     287.4633    101167.02    779.41116     0.867463   -1203.9337     2008.485    1088.1026    639.71675    610.41419   -117.41637    216.27577   -41.980916    287.48583   -4559.8376    1063.3752    1160.8648     1026.322    105.34198            0 
715600000    7.156e+08    287.18227    101167.02    559.41963     0.867463   -1262.0239    1947.2543    678.28903   -13.289135     1013.259   -487.82808    178.05913   -95.639516    287.20581   -4549.9285     1028.584    1114.7315    1035.6738     108.9153            0 
715700000    7.157e+08    287.99861    101167.02    862.48536     0.867463   -1166.5638    2051.8371    636.88826    1690.1633    260.40456   -416.42133    448.63886   -349.68759    288.02267   -4524.9749    1057.6243    1140.7448    1052.5212    107.52075            0 
715800000    7.158e+08    293.75598    101167.02    1699.5124     0.867463   -1208.4705    2074.2692    1843.2017    1893.6254    1361.7101   -352.39951   -277.84257   -96.058059     293.7785   -4550.9488    1063.4007    1131.0975    1040.7091    107.27104            0 
715900000    7.159e+08     293.8074    101167.02    484.29957     0.867463    -1216.709    2066.6053    104.18961    880.38057    468.32852   -263.84984    44.496974    426.89945    293.82931   -4555.0322    1027.0592    1165.1523    1038.9701    107.14163            0 
716000000     7.16e+08    291.23184    101167.02    652.18195     0.867463   -1249.5744    2004.9579    1059.5018    380.59758    516.44648    235.97633    77.937131   -236.12868    291.25382   -4527.8498     1014.604    1128.1945     1024.708    110.76879            0 
716100000    7.161e+08    292.78977    101167.02     1527.311     0.867463   -1255.9882    2015.9541    1438.2001    1993.2488     1150.484   -423.94706    170.42246    -223.4895    292.81331   -4568.3329    1034.5754    1125.1529    1040.2746    112.34167            0 
716200000    7.162e+08    297.49577    101167.02    1385.3798     0.867463   -1202.9756    2121.5566    1518.3219    1419.5191    1218.2985   -63.384499    221.22952    199.62878    297.51887   -4558.5671    1082.7042    1154.8594     1003.829    114.19887            0 
716300000    7.163e+08    297.37521    101167.02    1752.6586     0.867463   -1176.4164    2146.7685    1439.1121    1213.9545    2604.9094   -513.11176   -238.92045    228.94384    297.39941   -4584.9801    1084.3991    1146.3494    1069.5614    108.25388            0 
716400000    7.164e+08    296.77554    101167.02    1214.1095     0.867463   -1205.3561    2111.1274    946.98136     1653.439    1041.9081   -154.42723   -70.373869   -176.52909    296.79764   -4503.9697    1065.1072    1106.6272    1014.6809    112.19827            0 
716500000    7.165e+08    287.98449    101167.02    1243.8571     0.867463    -1188.209     2030.034    1638.9021    1117.4691    975.20019   -363.23875    289.24376    138.77213      288.006    -4536.107    1062.8283    1140.5489    1042.3541     102.1667            0 
716600000    7.166e+08    297.47705    101167.02    1654.0904     0.867463   -1189.5191    2134.8039    1968.7948    1077.8718    1915.6047   -175.78646   -647.80332    42.668119    297.49807   -4548.7734    1070.5201    1167.2553     1018.434      103.045            0 
716700000    7.167e+08      291.303    101167.02    1137.0459     0.867463   -1151.9902    2103.3375    1758.1438    947.53324    705.46078   -76.867244     155.7341    515.07207    291.32527   -4537.3888     1089.219    1147.6259    1039.3244     109.2294            0 
716800000    7.168e+08     285.6342    101167.02    1041.1347     0.867463   -1264.7056    1927.2728    983.07917    819.57075    1320.7541    83.036727    193.83377    -867.7677    285.65643   -4552.9078    1009.5467    1134.6183    1024.7674    119.26981            0 
716900000    7.169e+08    294.72667    101167.02    1292.1409     0.867463   -1208.9489    2084.6384    877.62496    2023.0541    975.74355   -534.73615   -279.73089    384.21791    294.74932   -4571.5298    1031.6213    1183.5742    1034.1199    113.26549            0 
717000000     7.17e+08     292.0809    101167.02    923.24734     0.867463   -1211.9834    2052.0373    1335.9084    891.96886    541.86476    202.72283    68.885004    312.45547    292.10132   -4546.4308    1056.5956    1167.8233    1006.6565    103.37216            0 
717100000    7.171e+08    286.12288    101167.02    300.53405     0.867463   -1201.0239    1996.4156    366.86558    68.158808    466.57775    120.16033    44.217119   -35.231211    286.14543   -4563.8457    1034.7147    1169.7779    1041.0545    117.27472            0 
717200000    7.172e+08    298.17044    101167.02    1084.4618     0.867463   -1254.6411    2077.4305    917.60803    875.80567    1459.9717   -553.04681   -845.90341    -750.8926     298.1914    -4523.476    1046.2258     1104.093    1000.7242    117.79188            0 
717300000    7.173e+08    290.17026    101167.02     606.4683     0.867463   -1241.7866    2000.8825    707.03505    499.50918    612.86068   -227.87722   -663.45201   -49.693275    290.19268   -4574.5809    1040.4963    1153.9284    1031.5455    106.82405            0 
717400000    7.174e+08    289.28859    101167.02    1459.6599     0.867463   -1291.9962    1940.8203      1682.46     1083.258    1613.2618   -574.03886   -110.64248   -38.582298    289.31089   -4547.4981    1067.3148    1089.8766    988.32218     109.9883            0 
717500000    7.175e+08    289.21997    101167.02    1075.4925     0.867463   -1154.0687     2077.981    1511.5947    1132.6954    582.18755    375.64967      137.168    211.99472    289.24291    -4533.316    1035.0884      1170.45    1066.6662    107.04257            0 
717600000    7.176e+08    288.23441    101167.02    642.10465     0.867463   -1236.0466    1984.9893    1033.1064     632.8372    260.37031     689.5631   -71.401275   -460.29152    288.25603   -4518.0777     1015.757    1111.1557    1039.8705    115.24779            0 
717700000    7.177e+08    302.05724    101167.02    687.96847     0.867463   -1146.6739     2228.833     1914.041    124.24704      25.6174    463.65874     254.1616   -504.32813    302.08125   -4529.8608    1088.7241    1146.0428    1033.4389    114.98109            0 
717800000    7.178e+08    290.06475    101167.02    1517.2225     0.867463   -1253.6716    1987.8185    1202.1325    1899.6717    1449.8631    705.56325   0.62509599   -463.97109    290.08767   -4552.5179    1039.6403     1131.325     1023.405    104.47602            0 
717900000    7.179e+08     291.2452    101167.02    1216.0816     0.867463   -1304.9111    1949.7706    1168.3336    965.50836     1514.403    -556.5441    336.69176    576.32593    291.26971   -4558.6569    1047.4236     1075.108     1027.408    103.80629            0 
718000000     7.18e+08    290.51844    101167.02    1007.4226     0.867463   -1205.6868    2040.8733    1115.2291    442.95118    1464.0874   -186.84334    428.25515    150.66743    290.54015   -4546.4986    1067.7943    1135.5101    1030.3219    107.18559            0 
718100000    7.181e+08    293.88412    101167.02    943.65192     0.867463   -1205.0815    2079.0903    1577.5036    1254.9605    -1.508375    292.60258    297.83461   -807.22806    293.90542   -4534.4425    1056.8858    1152.8735    1000.9389     118.6629            0 
718200000    7.182e+08    291.08686    101167.02    1192.6986     0.867463   -1224.5814    2028.3309    1340.6924    744.51351    1492.8899   -688.89708    102.10752   -432.26973    291.10946   -4590.1751    1066.4616    1142.2793    1047.3598    109.49301            0 
718300000    7.183e+08    292.38628    101167.02    607.58411     0.867463   -1224.5077    2042.9257    423.66708     435.1466    963.93864    -557.4924    186.73145    32.983798    292.40857   -4566.7564     1055.231    1138.2491    1046.3058    102.46278            0 
718400000    7.184e+08    293.76114    101167.02     960.7822     0.867463   -1236.3379    2046.4595    1334.3348    1140.0127    407.99905    873.02257    423.41007    534.89814    293.78247   -4544.7085    1051.0399    1112.8223    1024.9181    119.59022            0 
718500000    7.185e+08    289.36425    101167.02    1075.6289     0.867463   -1309.1423    1924.5197    842.35715     925.2282    1459.3014    106.73447    370.47679   -2.1565892    289.38638   -4556.4037    1048.4616    1110.6318    985.04706    103.12092            0 
718600000    7.186e+08    293.93874    101167.02    321.52875     0.867463   -1278.4468    2006.3353    364.11529    445.85497    154.61598    69.176332   -313.64875   -627.79122    293.96066   -4573.4811    1018.4457    1141.4924    1028.1838    106.91231            0 
718700000    7.187e+08    296.03128    101167.02    1347.2167     0.867463   -1192.7755    2115.3909    1723.4424    812.30409    1505.9035    78.224382    271.11266     77.92227    296.05366   -4554.1424     1051.707    1135.4469    1057.7389    116.47401            0 
718800000    7.188e+08    292.93187    101167.02    1784.1664     0.867463   -1188.2318    2085.2986     1545.735    1027.8053    2778.9589   -89.233589    14.011503   -41.887759    292.95228   -4569.9196    1064.7214    1163.5707    1033.7344    119.66136            0 
718900000    7.189e+08    284.75916    101167.02    912.92517     0.867463   -1197.2935    1984.9063    1216.0566    658.02844    864.69049   -283.22372    514.39701   -131.97449    284.78046   -4548.3677    1048.4946    1167.8945    1023.3571    111.32793            0 
719000000     7.19e+08    291.33438    101167.02    825.22106     0.867463   -1265.9233     1989.755    877.81721    887.25385    710.59213    306.48539   -392.70985    398.07892     291.3544   -4566.3981    1048.3859    1098.9439     1051.655    101.49003            0 
719100000    7.191e+08    297.96049    101167.02    1095.1433     0.867463   -1212.4698    2117.2557   -359.65982    1553.6716    2091.4182   -92.142997    584.81301    395.00172    297.98354    -4559.389    1068.6083    1144.1344    1032.9923     101.1842            0 
719200000    7.192e+08    296.24026    101167.02    1307.2818     0.867463   -1262.4903    2048.0115    1666.6956    1706.1619    548.98798    203.39036   -30.504863   -224.20707    296.26267   -4601.0525    1031.1989    1161.7466    1037.1829    108.43382            0 
719300000    7.193e+08    291.33306    101167.02     315.2777     0.867463   -1221.2375     2034.426    354.47721    781.63958   -190.28368    135.80533   -506.66002   -179.63671    291.35579   -4557.4582    1060.7926    1150.1035    1020.1469    105.17765            0 
719400000    7.194e+08    297.21592    101167.02    1141.0528     0.867463   -1154.2682    2167.1366    800.01599     1192.094    1431.0484   -442.75578   -345.71277   -171.91143    297.23879   -4556.2394    1071.9092    1179.1759    1033.2532    117.63301            0 
719500000    7.195e+08    295.83314    101167.02    1071.8763     0.867463   -1250.0962     2055.856    1287.5425    866.87639    1061.2101   -122.40558   -471.41513   -162.57248      295.856   -4546.1099    1042.2491    1133.7729    1008.8938    111.09776            0 
719600000    7.196e+08    289.30959    101167.02    1783.6917     0.867463   -1198.2658    2034.7854    2221.7864    1519.3573    1609.9315    456.49023   -525.60577   -811.18536    289.33133   -4529.9066    1052.2144    1144.9447    1024.4577    110.02399            0 
719700000    7.197e+08      294.095    101167.02    992.49165     0.867463   -1357.9336    1928.5948    1296.5922     1636.033     44.84974      446.374   -270.82949    264.93711    294.11813    -4565.646    970.61673    1114.2173    1014.6942    108.18423            0 
719800000    7.198e+08    288.42623    101167.02     106.9231     0.867463   -1184.0285     2039.151    509.39363   -277.94715    89.322827   -168.11652   -626.45774   -258.86696    288.44874    -4542.234     1015.746    1151.5239    1077.2331    113.70249            0 
719900000    7.199e+08    292.62652    101167.02    187.05485     0.867463   -1150.4198    2119.6982   -22.794209    1173.1655   -589.20678   -492.81529   -649.66885   -527.17431    292.64899   -4529.9356    1036.0133    1171.2173    1060.4323    111.85295            0 
720000000      7.2e+08    293.77745    101167.02    685.93867     0.867463   -1229.9643    2053.0153    897.59226    897.89957    262.32416   -162.27846   -145.04925   -25.188241    293.80175   -4533.5609    1039.6473    1100.6839    1051.4163    111.84907            0 
720100000    7.201e+08    286.39138    101167.02    620.42256     0.867463   -1246.5882    1953.8518    389.13219    991.25526    480.88024   -132.09434    280.26906   -261.57949    286.41462   -4555.5665    1072.9934    1112.6417    1017.6802    105.66301            0 
720200000    7.202e+08    288.04443    101167.02    179.44617     0.867463   -1276.0986    1942.8143    67.558557    573.77656   -102.99662   -561.70099   -437.68909   -626.85791    288.06625   -4577.3634    1035.2625    1158.0177    998.75066    109.23386            0 
720300000    7.203e+08    295.26953    101167.02    1598.4197     0.867463   -1214.5573    2085.0966    1719.7619    1653.4032     1422.094    306.08277    217.35786    21.928612    295.29073   -4562.1685    1065.3837    1153.3666    1014.5927    114.26818            0 
720400000    7.204e+08    293.47241    101167.02    1717.2427     0.867463   -1174.9988    2104.5721     1320.026    1760.7181    2070.9841   -188.10776   -446.72988    119.64099    293.49493   -4562.2492    1062.1482    1164.4452    1051.7927    108.86424            0 
720500000    7.205e+08    292.08001    101167.02    980.07705     0.867463   -1299.1941    1964.8166    492.49747    862.97288    1584.7608   -300.36079   -429.00891   -223.35599    292.10144   -4550.5928    1025.4513    1091.9174    1031.0585    102.97147            0 
720600000    7.206e+08    299.10065    101167.02    802.09327     0.867463   -1249.8926    2092.5742    1054.1252    835.73008    516.42453    -94.32531    95.716568   -431.74313    299.12401   -4564.5755    1089.2241    1110.8185    1006.3371    108.30325            0 
720700000    7.207e+08    296.40789    101167.02    289.92715     0.867463   -1181.9418    2130.4332     660.0306    337.82166   -128.07083     167.9112    344.75298    2.3262641    296.43144   -4572.1442    1086.5233     1138.842    1056.2009    108.63614            0 
720800000    7.208e+08    296.52195    101167.02      609.784     0.867463   -1126.9639    2186.6857    1681.8152  -0.21402268    147.75081   -277.64131   -64.203139   -609.60116    296.54568   -4540.7024    1057.0887    1183.7891    1073.0071     99.85353            0 
720900000    7.209e+08    293.25704    101167.02    750.94396     0.867463   -1205.0577    2072.1065    1009.7167    310.48967    932.62553   -578.36273    566.35757    590.54833    293.27824   -4549.6217    1040.2359    1175.9648    1017.5553    110.80804            0 
721000000     7.21e+08     290.4477    101167.02    1906.9524     0.867463   -1176.2616    2069.5081    1716.8868     1388.554    2615.4164     64.90073   -400.07253    74.185225    290.46964   -4550.5951    1051.8946    1140.4317    1064.8219    117.18534            0 
721100000    7.211e+08    297.15059    101167.02     833.6324     0.867463   -1139.4126    2181.2622    1126.5186    108.40163     1265.977   -390.06285   -306.33399   -368.78899    297.17377   -4538.9884    1056.2092    1162.1933    1064.0272    117.14603            0 
721200000    7.212e+08      287.363    101167.02    1137.9961     0.867463   -1143.7104    2067.5875    1285.5764    604.59293    1523.8191   -287.85073   -298.53767    804.25489    287.38603   -4523.8736    1095.4483    1126.0383    1049.8774    108.79922            0 
721300000    7.213e+08     293.3484    101167.02    1494.5178     0.867463   -1224.4186    2053.7665    728.60227    1998.3562     1756.595   -469.27671     579.1162    153.98233    293.36998   -4545.2021    1049.1194    1098.9098    1058.4502    114.30396            0 
721400000    7.214e+08     290.8589    101167.02    961.06408     0.867463   -1157.5253    2092.8394    1519.8562    799.71784    563.61818   -656.26435    301.15628    -18.63326    290.87903   -4512.2285    1057.4009    1138.3331    1044.9448    114.02444            0 
721500000    7.215e+08    290.33607    101167.02    1563.4167     0.867463   -1212.9136    2031.6084    2067.7605    1301.5629    1320.9269   -385.48846   -254.75709   -39.491481    290.35954    -4555.831    1028.1892    1137.0795    1066.5715     111.0772            0 
721600000    7.216e+08    290.64031    101167.02    986.17213     0.867463   -1148.8201    2099.1019    503.84592    696.17191    1758.4986   -94.360339   -213.19605    272.74761    290.66367   -4526.3028    1108.8735    1086.5139    1076.8933      105.202            0 
721700000    7.217e+08    299.02971    101167.02    1092.1392     0.867463   -1206.9112    2134.7629      693.541    1386.1434    1196.7332    -219.7368    87.257514   -664.47661    299.05178   -4540.0782    1036.6689    1098.7975     1089.519    108.18151            0 
721800000    7.218e+08    295.38655    101167.02    1002.5467     0.867463   -1163.0639    2137.8976    239.53218    1251.0813    1517.0266   -312.12846    84.973329   -392.39796    295.41033   -4567.9473    1084.0684    1143.1839    1066.0025     111.6286            0 
721900000    7.219e+08    292.49052    101167.02    1626.0541     0.867463   -1256.9119    2011.6863    1774.6017    1661.8862    1441.6745   -676.60842   -10.521012    64.964046    292.51472   -4562.0506    996.35219    1132.8436    1065.9786    109.96426            0 
722000000     7.22e+08    302.71834    101167.02    2001.1415     0.867463    -1219.304    2163.5907    1928.5547    1638.2455    2436.6243   -29.948277    61.216323   -118.98262     302.7409    -4566.825    1048.5124    1150.5557    1040.7303    107.72259            0 
722100000    7.221e+08     291.6623    101167.02    750.14318     0.867463    -1199.944    2059.3988    454.25539    1013.4679    782.70627   -362.27768   -198.56991   -407.37165    291.68417   -4529.0915     1046.673    1141.5543    1025.2134    115.70686            0 
722200000    7.222e+08      291.278    101167.02    1007.0134     0.867463   -1165.2178    2089.8305    1020.8571    1087.0873    913.09595    648.86621   -460.92498    469.74773    291.30105   -4510.3731    1011.9618    1153.2934    1064.8284    115.07164            0 
722300000    7.223e+08    299.08848    101167.02    650.64876     0.867463   -1225.4015    2116.9293     566.7566    1401.4461   -16.256408    421.64275    84.784235    423.71066    299.11166   -4558.6098    1023.4208    1137.8034    1056.7616    115.22256            0 
722400000    7.224e+08    294.65911    101167.02     1218.711     0.867463   -1185.6352    2107.1971    2025.1931    893.86642    737.07342   -536.27286    253.29888    508.08205    294.68086   -4566.7634    1041.4265    1155.2124    1072.1032    112.38604            0 
722500000    7.225e+08    288.84794    101167.02     453.0508     0.867463   -1154.1402    2073.7519    -288.9592    376.00693    1272.1047    374.46814   -160.66343    127.44797    288.87226   -4544.5251    1053.6808    1167.8507    1049.9737    118.87971            0 
722600000    7.226e+08    293.47648    101167.02    1395.3314     0.867463   -1252.7144     2026.902    1022.7236     1357.322    1805.9485   -262.02245   -129.58927    164.22313    293.50083    -4576.118    1059.9779    1129.9723    1034.3937      99.0596            0 
722700000    7.227e+08     291.5733    101167.02    734.52111     0.867463   -1236.6057    2021.7425    210.60206    741.83352    1251.1278    436.25559    69.194239    91.444597    291.59353   -4566.0085     1038.373    1104.6268    1080.7678    105.63518            0 
722800000    7.228e+08    293.98273    101167.02     398.9534     0.867463   -1277.2964    2007.9774    178.77871    954.15061     63.93087    458.97229    348.12269   -528.57421    294.00656   -4556.0876    1038.7325    1111.9176    1015.6111    112.52994            0 
722900000    7.229e+08    286.94284    101167.02     1229.482     0.867463   -1242.9841    1963.6184    767.53548    1282.5732    1638.3372   -821.74861   -12.850775   -147.90126    286.96655   -4528.2577    1059.5456    1107.6719    1016.2874    101.76869            0 
723000000     7.23e+08    292.82335    101167.02    964.32088     0.867463   -1207.5061    2064.8115    1475.9181    983.82533    433.21918   -333.89948    318.15695   -152.46242    292.84621   -4579.1738    1071.5991    1201.7905    985.06669    113.21137            0 
723100000    7.231e+08    296.54757    101167.02    454.52645     0.867463   -1229.0153    2084.9207   -322.52203    1188.5256    497.57582   -743.67001   -45.798278    158.62764    296.57008   -4551.4314    1058.4612    1130.6803    1019.5954     113.6792            0 
723200000    7.232e+08    300.77255    101167.02    913.75323     0.867463   -1247.2244     2113.926    355.41724    1192.7536    1193.0889   -626.64448   -206.48027   -731.86664    300.79319   -4553.2411    1031.9665    1135.0141    1030.6381    108.39794            0 
723300000    7.233e+08    288.49977    101167.02    1269.7368     0.867463   -1328.8046    1895.1967    2138.9669    898.24989    771.99365   -2.5298397    44.568664     90.74957    288.52298    -4568.074    1004.7626    1093.6984    1033.4776    107.33083            0 
723400000    7.234e+08    290.09745    101167.02    1771.5113     0.867463    -1170.235    2071.6205    1457.0197    2194.3648    1663.1494    542.06222    -345.5187    239.69357     290.1183   -4510.4046    1072.4847     1118.518    1050.5401    98.626906            0 
723500000    7.235e+08    295.75929    101167.02    1149.9064     0.867463   -1107.2954    2197.8315    741.51664    1221.2475    1486.9549    647.74587   -69.858105   -519.15695    295.78172   -4519.5922    1069.3241    1159.3014    1066.8291    116.84225            0 
723600000    7.236e+08    298.77832    101167.02    489.52858     0.867463   -1130.4088     2208.456   -407.91361    1447.7472    428.75221    229.73745    -310.0176   -148.01799    298.80108   -4518.6289    1079.8954    1173.4865    1037.2961    97.542143            0 
723700000    7.237e+08    289.33451    101167.02    355.69906     0.867463   -1164.5767    2068.7529    315.76082    284.31335    467.02301    71.988693     234.8079    18.845444    289.35562   -4548.6801     1070.929    1162.4213     1037.544    113.20912            0 
723800000    7.238e+08    293.98907    101167.02   -85.324583     0.867463   -1205.0744    2080.2703   -1709.8291    1338.0322     115.8232   -891.67791     967.5862    470.66196     294.0125   -4532.5954    1082.7295    1141.0216    992.18336    111.58656            0 
723900000    7.239e+08    298.47813    101167.02    1736.2535     0.867463    -1140.975     2194.535    1630.3125    2241.6241    1336.8238   -134.20077     93.17904    140.29049    298.50046   -4534.7905    1094.2569    1188.6626    1002.4704    108.42558            0 
724000000     7.24e+08     289.4205    101167.02    1113.3667     0.867463   -1156.7067    2077.5838    1337.8945    1078.0155    924.18996   -296.01772    369.17569     85.19208    289.44093   -4545.6793    1080.5615    1125.7912    1068.9523    113.66758            0 
724100000    7.241e+08    283.57194    101167.02    719.74806     0.867463   -1171.1837    1997.7489    478.33563     1128.984    551.92453    408.56513    104.82411    32.964299    283.59461   -4584.0561    1075.0677    1177.3736    1053.2239    107.20725            0 
724200000    7.242e+08    292.35797    101167.02    1331.0577     0.867463   -1216.9681    2050.1488    1560.0241    1601.7525    831.39659   -385.08508   -110.66206    68.888459    292.37994   -4550.1453    1044.5252    1169.8834    1010.5367    108.23188            0 
724300000    7.243e+08    289.93258    101167.02    539.77394     0.867463   -1208.0573    2031.9557    498.15306    709.84583    411.32293   -308.86506    308.14224   -70.901882     289.9553   -4562.7973    1064.0753    1123.1924    1052.8607    114.61164            0 
724400000    7.244e+08    291.07559    101167.02    1068.3067     0.867463   -1206.2475    2046.5388    1556.5191    749.52352    898.87758   -392.82227    402.93934    576.78435     291.0996   -4588.0151    1055.9968    1184.5093    1030.5307    110.73075            0 
724500000    7.245e+08    295.93584    101167.02   -181.86038     0.867463   -1089.9258     2217.174   -257.12465   -474.68883    186.23235   -415.84196     284.9088   -251.91625     295.9586   -4551.6905    1069.8416    1165.9655    1106.8442    119.11328            0 
724600000    7.246e+08    293.20325    101167.02    1342.7984     0.867463   -1178.3635    2098.1995    1082.1147    743.31884    2202.9617    -166.7778   -12.509996   -61.887627    293.22673   -4561.0949    1035.0514     1144.171    1094.0216     109.4875            0 
724700000    7.247e+08    291.93176    101167.02    1118.7224     0.867463   -1175.3761    2086.9779     2302.475     468.1719     585.5202    793.92828    373.56195   -212.29832    291.95342   -4516.1403    1058.9197    1141.1522    1031.5022    109.19008            0 
724800000    7.248e+08    291.50086    101167.02    552.43828     0.867463   -1195.7973    2061.7413    281.15514    763.28738    612.87232   -379.43286   -248.93752    606.40185    291.52195   -4553.2005    1013.1556    1163.2063    1070.1098    110.93153            0 
724900000    7.249e+08    297.59132    101167.02    651.78471     0.867463   -1203.6539     2121.946    947.27408    497.22858    510.85148   -13.362344   -519.02014   -17.857968    297.61313   -4538.3897    1038.6876    1147.8131    1053.9947    94.240407            0 
725000000     7.25e+08    291.92714    101167.02    762.08047     0.867463   -1232.6608    2029.6415    477.61933    1162.0989    646.52312   -614.24874   -271.83143   -329.35431    291.94889   -4558.9047    1035.7163     1120.995    1063.9389    105.59365            0 
725100000    7.251e+08    299.83521    101167.02     858.5493     0.867463   -1262.1432    2088.5323    212.60107    1219.4107    1143.6361   -194.32074    498.88051   -547.97547    299.85783   -4548.4232    1008.8124    1103.8537    1046.7101    126.90388            0 
725200000    7.252e+08    293.69218    101167.02    1378.3681     0.867463   -1232.1751    2049.8518    1330.9374    994.53845    1809.6285      220.748    601.13506     242.2835    293.71617   -4532.6473    1051.7516    1152.8752    990.10309    105.74224            0 
725300000    7.253e+08    290.97407    101167.02    944.16324     0.867463   -1258.8886    1992.7632    1084.3211    899.30573    848.86291    282.99169   -747.29338    85.515942     290.9953   -4564.6941    1074.0656    1161.1115    964.18778    106.44069            0 
725400000    7.254e+08    298.58291    101167.02    1725.2571     0.867463   -1150.4548    2186.2261    1953.4326    2235.7315    986.60719   -233.30474    197.92744    799.13472    298.60522   -4553.3893    1057.3741    1169.2989    1065.3706    110.89082            0 
725500000    7.255e+08    301.10208    101167.02    449.06569     0.867463   -1217.6821    2147.1507    387.92256    849.20136    110.07314   -134.71416    -774.5953   -422.47531    301.12493   -4553.0823    1057.3972    1152.2529    1009.0638    116.68633            0 
725600000    7.256e+08     300.4027    101167.02    750.91464     0.867463   -1256.0863    2100.9309    281.11346    624.30009    1347.3304    -837.3354   -108.16333     275.4741    300.42293   -4566.6644    1041.8899    1134.5994    1027.9892    106.09959            0 
725700000    7.257e+08    291.67526    101167.02    625.37227     0.867463   -1284.5102    1974.9774    607.23059    335.07951    933.80672   -462.85338    549.93771    34.250823    291.69747    -4574.319    1021.8201    1127.5396    1031.8266    108.62237            0 
725800000    7.258e+08    292.79749    101167.02    1265.5207     0.867463   -1277.7576     1994.271    1134.2031    1436.3435    1226.0155    105.29343    391.34021    481.76006     292.8191   -4562.7951    1042.2271    1092.9494    1033.5786    116.28247            0 
725900000    7.259e+08    293.82679    101167.02    814.08698     0.867463   -1267.3525    2016.1785    634.99371    888.30909    918.95814   -889.83577   -565.61239   -132.40695    293.84895    -4546.141     1016.171    1119.8096    1036.6812     106.1266            0 
726000000     7.26e+08    295.90033    101167.02    440.52165     0.867463   -1341.4976    1965.2054   -261.38632   -136.37817    1719.3294   -565.85857    -627.2639    170.19673    295.92308   -4549.7727     1003.393    1099.9373    994.84191    110.10287            0 
726100000    7.261e+08    290.53891    101167.02    381.97778     0.867463   -1231.2695    2015.5194   -43.183306     1150.155    38.961684   -427.74793   -239.79036   -80.841284    290.56179   -4558.0524    1069.3506    1124.9926    1014.9387    117.50112            0 
726200000    7.262e+08    295.71352    101167.02    981.37385     0.867463   -1149.8521    2154.7633    1261.8827    1231.0431     451.1958   -392.94646     161.7254   -152.96786    295.73487   -4555.7906    1094.4615    1150.0244    1050.3584    111.09414            0 
726300000    7.263e+08    285.98723    101167.02    498.79409     0.867463   -1134.7035    2061.2201    277.70751    730.31802    488.35675    66.495765    257.49915    123.03085    286.00974   -4541.1692    1098.5143    1148.4237    1046.9629    112.56491            0 
726400000    7.264e+08    295.84411    101167.02    899.14367     0.867463   -1332.6439    1973.4309    1307.6146    1281.0588    108.75767    124.19299   -568.83943   -298.58865    295.86649   -4570.3637    999.83672    1072.4961    1064.3599     101.0271            0 
726500000    7.265e+08    293.66906    101167.02    475.53791     0.867463   -1237.4876    2044.2809    834.17875    344.66166    247.77332    55.701654    342.86253    -629.0829    293.69094    -4548.563    1035.1252    1159.2816    1000.8368     115.8319            0 
726600000    7.266e+08    294.93407    101167.02    715.46089     0.867463   -1191.4574    2104.4476    1064.0486    474.03876    608.29532    537.49262    628.64109    935.31211    294.95835   -4553.3324    1021.3941    1151.1007     1068.912    120.46813            0 
726700000    7.267e+08    289.76289    101167.02    228.70989     0.867463   -1159.2468      2078.87    399.27729   -705.92706    992.77944    317.87146   -834.55894    30.707664    289.78543   -4559.2775    1091.8623    1152.3735    1045.3787    110.41619            0 
726800000    7.268e+08    289.65357    101167.02    211.89203     0.867463   -1209.2774    2027.6177    87.029894   -516.89833    1065.5445   -1007.6756   -17.950358    492.04105     289.6751   -4560.2056    1056.1116    1138.2781      1043.32    113.21842            0 
726900000    7.269e+08    292.77857    101167.02    1183.9088     0.867463   -1144.5419    2127.2753    1786.5713    397.37272    1367.7823   -570.09727    -77.11953   -545.90694    292.79924   -4524.1415    1071.1175    1117.4824    1092.5148    98.484858            0 
727000000     7.27e+08    300.27469    101167.02     1975.883     0.867463   -1170.1099    2185.4768     1322.784    2141.9118    2462.9533    256.92473   -50.097676    82.244879    300.29754   -4559.6511    1102.7541     1121.014    1059.9804    105.79262            0 
727100000    7.271e+08    295.29063    101167.02    1411.8794     0.867463   -1254.2402    2045.6494    2401.2725    1226.4724    607.89343    123.58281    309.80572   -403.11247    295.31174    -4565.825      1065.04    1109.4335    1031.4081    105.70323            0 
727200000    7.272e+08    291.69727    101167.02    1838.1954     0.867463   -1186.9816    2072.7519    2085.7106     1674.006    1754.8695    41.629814   -159.75305    125.13206    291.72067   -4540.4336     1042.417    1129.2469    1075.8737    105.91442            0 
727300000    7.273e+08    292.58294    101167.02    1718.7494     0.867463   -1182.5504    2087.0805    2047.9584    895.62369    2212.6661   -124.32365    136.20329    245.89979     292.6051    -4526.569    1079.8222    1078.3237    1081.2669    104.60581            0 
727400000    7.274e+08    290.19869    101167.02    878.80546     0.867463   -1198.9451    2044.0418    1109.9266    639.00629    887.48353   -759.52699   -139.68104    554.33991    290.21949   -4537.0111    1084.2191    1128.2379    1023.6388    101.97024            0 
727500000    7.275e+08    289.81703    101167.02    506.82049     0.867463   -1276.5236    1962.1982     235.9616    555.13928     729.3606   -1104.2461    365.52607    -236.6982    289.83888   -4570.7313    1072.1424    1083.3048    1036.8208    101.93971            0 
727600000    7.276e+08    292.51958    101167.02    530.09071     0.867463   -1192.5887    2076.3343    126.48784    572.51685    891.26744    740.92887   -465.93153    104.14046    292.54107   -4567.8258    1069.8563    1130.1455    1058.1247    117.11067            0 
727700000    7.277e+08    292.05969    101167.02    1520.0573     0.867463   -1226.5317    2037.2519    1759.0204    1247.7885    1553.3631   -27.230986   -339.82453    403.23834    292.08151   -4516.9731    994.34935    1110.9651     1072.397    112.72992            0 
727800000    7.278e+08    291.04145    101167.02    424.96663     0.867463   -1196.3995    2056.0053    358.39493    759.05815    157.44681    217.42987    102.23142   -237.44166    291.06444    -4549.059     1038.927    1174.9806    1022.8095    115.94243            0 
727900000    7.279e+08    291.86194    101167.02    1796.0975     0.867463    -1282.843    1978.7307    2170.4281    1911.2633     1306.601    403.77916    158.10999     361.7978    291.88466   -4563.3332    1019.8637    1145.8663    1002.1173    112.64296            0 
728000000     7.28e+08    288.12254    101167.02    1192.5434     0.867463   -1242.2707     1977.515    1236.5789    1233.6529    1107.3984    271.05887    78.666794    744.46035    288.14663   -4519.7218    1043.4325    1109.5775    1009.6428     114.7982            0 
728100000    7.281e+08    292.42948    101167.02    680.49992     0.867463   -1193.4806    2074.4355    1399.8331   -37.431709     679.0984   -74.884611    383.16167   -268.38835    292.45286   -4535.0155    1039.0609    1148.6442    1033.1668    120.66304            0 
728200000    7.282e+08    293.88008    101167.02   -284.86959     0.867463   -1262.7587    2021.3679   -475.74512    537.32278   -916.18642    470.13409    -462.9943   -496.87371    293.90203    -4532.534    1003.8552    1140.9638    1015.3157     109.6407            0 
728300000    7.283e+08    298.38753    101167.02    758.86655     0.867463    -1134.065    2200.4326    1194.1743   -111.54227    1193.9676     200.8814   -208.82718    162.97673    298.40864   -4546.2501    1069.7091    1146.3457    1083.4622    112.66805            0 
728400000    7.284e+08    290.08172    101167.02    754.00218     0.867463   -1223.5129    2018.1669    379.30799    786.09965    1096.5989   -474.32201   -151.08239     1055.961    290.10506   -4521.5943    1001.9284    1113.4515    1062.8864    119.81515            0 
728500000    7.285e+08    295.37919    101167.02    1549.5876     0.867463   -1170.8169    2130.0623    1924.6694    1156.2206    1567.8728    29.967858   -585.05512   -1003.8153    295.40304    -4531.238    1024.2365    1137.1381    1089.6554    109.39109            0 
728600000    7.286e+08     294.4871    101167.02    1247.8269     0.867463   -1188.4849    2102.4252    1111.6171    1020.1764    1611.6873     36.55527   -31.075723   -115.95153    294.50858   -4544.1292    1084.1907    1099.0334    1065.6293    106.79096            0 
728700000    7.287e+08    290.55699    101167.02    1067.0935     0.867463   -1209.7631    2037.2277    458.85139    1085.6211    1656.8079   -352.18387    416.28851   -37.164682    290.57827    -4597.205    1057.9882    1144.3512    1081.6365    103.46599            0 
728800000    7.288e+08    293.25685    101167.02    240.38671     0.867463   -1209.9014    2067.2606    74.838547    316.55996    329.76163   -584.67668   -649.08834   -39.289953    293.28014    -4544.084    1058.6706    1137.9939     1038.421    99.097164            0 
728900000    7.289e+08    293.42965    101167.02     364.4626     0.867463   -1176.0087    2103.0843    684.53564   -147.91958    556.77175   -337.57808    170.55198    876.11793    293.45292    -4579.878    1094.1578    1141.5652    1049.0123    119.13405            0 
729000000     7.29e+08    293.83824    101167.02    968.22068     0.867463   -1203.7164    2079.9427    1014.9028    991.57804    898.18121    288.61079   -2.5404031   -418.65116    293.86119   -4593.1134    1075.4249    1162.3805    1039.5365    112.05509            0 
729100000    7.291e+08    293.97975    101167.02    898.11812     0.867463   -1158.7983    2126.4422    666.56879    1039.9855     987.8001   -303.20004    -795.2617    294.30183    294.00264   -4555.5319    1062.2221    1175.9319    1047.3151    111.26448            0 
729200000    7.292e+08    292.98316    101167.02    1513.1418     0.867463    -1191.727    2082.3765    935.55418    1865.7572    1738.1139   -640.66201   -8.3959209   -563.27228    293.00618   -4547.3205    1069.1458    1158.0649    1019.7279    108.65491            0 
729300000    7.293e+08    292.58945    101167.02    37.467015     0.867463   -1212.4038       2057.3    511.50819   -560.70566    161.59851    118.06977   -444.31899    74.450725    292.60998   -4540.3886    1058.0872    1137.9658    1030.8031    101.12877            0 
729400000    7.294e+08    286.43737    101167.02    825.97201     0.867463   -1234.7546    1966.1993    567.18163    132.88633    1777.8481   -547.86009   -35.720173   -359.30296    286.45917   -4531.6256    1010.7753    1116.6625    1063.3135    106.11966            0 
729500000    7.295e+08    295.85417    101167.02    780.74143     0.867463   -1179.7926    2126.3945    529.19319    984.64124    828.38987   -821.56089    175.59372   -278.07191    295.87702   -4557.7607    1053.8847    1159.3368    1042.9002    121.84633            0 
729600000    7.296e+08    293.27474    101167.02    1307.8696     0.867463   -1282.7859    1994.5759    1911.5605    1634.3691    377.67924    44.381983    266.15489    434.79676    293.29688    -4532.376    1023.8089    1111.6135    998.91204    115.25559            0 
729700000    7.297e+08    287.94214    101167.02    1422.0221     0.867463   -1118.3824    2099.3874    1630.2753    1852.8014    782.98952   -407.62693    6.9545762    161.83543    287.96288   -4545.5642    1084.3891    1163.6255    1079.0805    100.08675            0 
729800000    7.298e+08    293.91582    101167.02    1382.4991     0.867463   -1169.7085    2114.8176    1847.8624    1134.9856    1164.6492   -60.368392    315.33765    352.65186      293.938    -4549.563    1040.3501    1186.2609    1034.1319    119.11166            0 
729900000    7.299e+08    297.80744    101167.02    756.37483     0.867463   -1235.0591     2092.956    401.39975    752.06104    1115.6637   -519.92316   -231.64315    510.99125    297.83121   -4561.3312     1050.321     1164.806    997.46926    113.67587            0 
730000000      7.3e+08    294.26277    101167.02    29.367048     0.867463   -1255.1193     2033.284   -460.42992   -163.36492    711.89599   -284.68817    740.13042   -588.59289     294.2853   -4544.9388    1098.9584    1097.7561    984.07393    109.03105            0 
730100000    7.301e+08    296.14217    101167.02    56.221972     0.867463   -1293.4892    2015.9164    506.25411    -275.9304   -61.657785    55.942339    131.69529   -146.61597    296.16368   -4576.5758    1030.1565    1132.9313    1013.3216    106.67716            0 
730200000    7.302e+08     295.0877    101167.02    1415.3266     0.867463   -1308.2058     1989.416    1786.6068    878.80903    1580.5639   -78.966685   -197.94094    -287.3623    295.10886   -4563.1851    1060.7076    1097.6617    991.78467    104.82533            0 
730300000    7.303e+08    291.16726    101167.02   -77.055646     0.867463   -1159.8983    2093.9124   -389.20636   -106.54127    264.58069   -530.40741    37.673265   -522.04532    291.19099   -4544.1466    1034.4296    1197.1532     1041.599    111.06648            0 
730400000    7.304e+08    289.61238    101167.02    1386.3337     0.867463    -1302.346    1934.0888    744.08686    1934.1236    1480.7905    18.972898    284.83113   -172.19916    289.63495   -4581.5906    990.54574    1143.8392    1031.5347      113.325            0 
730500000    7.305e+08    285.06221    101167.02    1034.0076     0.867463   -1180.3536    2005.2328    1167.7608    788.94532    1145.3167   -313.33455    229.44008    229.01974    285.08519   -4547.3973    1077.3905    1162.8957    1012.5702    114.18738            0 
730600000    7.306e+08    294.94815    101167.02    -92.90377     0.867463    -1191.162    2104.9004   -378.11305   -203.67904    303.08079   -358.96336   -181.23428   -498.93143    294.96985   -4541.6003    1039.7653    1176.8542    1027.9766    105.84215            0 
730700000    7.307e+08    294.06103    101167.02    1079.4016     0.867463   -1129.5422    2156.6066    1774.0629    862.39379    601.74808   -150.40626   -642.98689    807.71797    294.08315   -4550.0582    1089.7015    1162.2634    1053.3995    115.15157            0 
730800000    7.308e+08    288.87162    101167.02    589.93744     0.867463   -1230.5596    1997.5972     1161.651    501.63141     106.5299      1159.37   -204.82881   -490.51451    288.89388   -4567.1912    1012.0984    1154.2429    1068.5067    101.78367            0 
730900000    7.309e+08    294.17175    101167.02    531.19358     0.867463   -1173.2739    2114.1122    1099.2606    787.87605   -293.55587    432.67081   -532.68659   -289.10484    294.19548   -4554.9149    1089.8802    1152.3336     1021.538    117.88912            0 
731000000     7.31e+08    283.37896    101167.02     393.2871     0.867463   -1269.1479    1897.6282     939.4515   -119.76618      360.176   -18.728936    404.88249    541.20982    283.40106   -4569.7528    1034.5035    1106.2041    1051.5329    108.36443            0 
731100000    7.311e+08    295.37757    101167.02    930.67053     0.867463   -1218.4825    2082.3786     579.1126    1071.1519    1141.7471     298.8244     210.2541   -470.22412    295.39915   -4534.8703    1006.0771    1143.1724    1056.9252    110.21306            0 
731200000    7.312e+08     290.3617    101167.02    621.84415     0.867463   -1238.5779    2006.2306    331.47692    960.81303     573.2425   -870.73912     172.1553    403.62216    290.38189   -4532.8289    1042.2804    1111.4424    1025.9693    114.55889            0 
731300000    7.313e+08    296.84098    101167.02    1044.6479     0.867463   -1264.0055    2053.2093    306.97843    1353.9525    1473.0128   -313.23174   -88.456934   -568.59186    296.86482   -4519.9865    1019.0338    1102.5122    1027.0717    107.36338            0 
731400000    7.314e+08    294.17036    101167.02    421.54932     0.867463    -1261.806    2025.5645    1140.8899    919.64426   -795.88616   -654.59963    475.62452    213.17301    294.19136   -4547.6129    1011.9829    1132.7156    1034.1469    106.96142            0 
731500000    7.315e+08    287.73273    101167.02    1630.0972     0.867463   -1295.1627     1920.267    2198.7061    1150.0505     1541.535    1114.8598    513.20648    657.89334    287.75356   -4582.3585    1062.6689    1106.7188    1015.1375    102.67064            0 
731600000    7.316e+08    293.72127    101167.02    804.98022     0.867463    -1252.406    2029.9458    244.75113    979.03526    1191.1543   -327.97672   -389.90932   -831.45239    293.74431    -4548.309    1061.8212    1115.9229    1004.2792    113.87972            0 
731700000    7.317e+08    288.30283    101167.02    1815.7532     0.867463   -1289.3505      1932.45    1973.6711    1395.2095    2078.3788    248.61199   -334.08974    478.09003    288.32416   -4535.1394    1054.6568    1101.4032    984.73276    104.99619            0 
731800000    7.318e+08    296.36298    101167.02    211.09238     0.867463   -1228.8925    2082.9807    643.91235   -223.25397    212.61875   -284.20127   -632.51325    -67.80647    296.38601   -4538.5394    1029.8678     1155.426    1020.4098    103.94325            0 
731900000    7.319e+08    293.36943    101167.02    310.03557     0.867463   -1255.0359    2023.3842    945.84918    564.15516   -579.89764   -424.05695    157.43328   -451.91385     293.3922   -4567.3794    1029.2499    1172.4114    1004.0248    106.65725            0 
732000000     7.32e+08    288.71455    101167.02    1042.5334     0.867463   -1279.0776    1947.3239    1268.0541    1622.4071    237.13906   -49.277597    -329.6601   -215.12867    288.73555   -4550.3374    1004.6986    1114.6919    1042.3232    109.54618            0 
732100000    7.321e+08     302.9624    101167.02    439.18328     0.867463   -1195.1683    2190.4538     1274.993   -7.2381314    49.794918   -234.89359    621.54572   -384.06572    302.98478   -4533.5933      1062.86    1141.4299    1023.3137    110.82141            0 
732200000    7.322e+08    293.22864    101167.02    167.08203     0.867463   -1179.4481    2097.3986    -720.4616    1523.4411   -301.73346    110.74502   -598.97578    212.31103    293.25112    -4532.337    1037.5307    1158.1439    1049.2428    107.97153            0 
732300000    7.323e+08    288.69595    101167.02    682.14477     0.867463   -1133.4319    2092.7618   -33.332019    476.16796    1603.5984    418.94358   -348.34085    355.20405    288.71753    -4537.419      1086.96    1169.9802    1043.5451    103.50181            0 
732400000    7.324e+08    292.98427    101167.02    790.77667     0.867463   -1210.4168    2063.6991     1005.202    319.32367    1047.8043   -461.39569   -688.53388    77.229565     293.0089   -4550.8804    1034.9384     1173.786    1014.9424    116.79676            0 
732500000    7.325e+08    293.19153    101167.02    1028.2329     0.867463   -1212.9741    2063.4579    1745.1301     565.8696    773.69897   -462.22058   -48.206205   -320.12815    293.21181   -4560.3624    1046.1353     1149.783    1032.4108     119.0592            0 
732600000    7.326e+08    291.48399    101167.02     137.4683     0.867463   -1265.1206    1992.2296    -559.5461   -95.668211    1067.6192   -823.99969    284.62889      44.1386    291.50729   -4564.0896    1053.1796    1105.9307    1029.3236    110.53516            0 
732700000    7.327e+08    294.59045    101167.02    -45.69756     0.867463    -1262.339     2029.726   -261.98514   -965.56092    1090.4534   -439.45449   -239.79031   -601.61389    294.61381   -4563.0162    1041.9283    1128.3257    1023.3779    107.04532            0 
732800000    7.328e+08    293.48133    101167.02    545.35833     0.867463   -1288.4578    1991.2127    917.23552    276.75405    442.08542   -349.71859   -162.42969   -519.95356    293.50454   -4577.1666    1067.0148    1144.3815    960.39465    116.91793            0 
732900000    7.329e+08    299.61347    101167.02    711.18542     0.867463   -1298.9048    2049.2928    1301.6644    2.5280208    829.36383   -258.12283    262.01782    660.64548    299.63479   -4555.6785    1046.1527    1093.8642    1010.9308    105.82608            0 
733000000     7.33e+08    291.57679    101167.02    1588.2802     0.867463   -1253.4646    2004.9226    1332.4834    2201.5759    1230.7813    70.908148    529.54341    265.36083    291.59878   -4556.6655    1055.4844    1109.0291    1024.6744    114.01309            0 
733100000    7.331e+08    295.99322    101167.02    1304.7694     0.867463   -1276.0037    2031.7374    1192.1805    1035.6131    1686.5145   -527.51322    39.831679   -836.93914    296.01501   -4570.5733     1047.108    1140.6816    995.95562    110.82447            0 
733200000    7.332e+08    291.91914    101167.02     333.1298     0.867463    -1272.477     1989.736   -356.88774    601.56878    754.70837    258.51759    -14.86641    445.61235    291.93968   -4562.7822    1037.2215    1144.6159     996.2136     112.2541            0 
733300000    7.333e+08    290.48477    101167.02     750.3167     0.867463   -1290.7326    1955.4511     968.0652    941.13621     341.7487    -622.3107    266.71932   -465.81452    290.50472    -4582.458     1035.114    1130.7483    1015.5461    110.31703            0 
733400000    7.334e+08    293.21776    101167.02    849.78022     0.867463   -1182.0947    2094.6304    81.058789    738.69067    1729.5912    177.57285   -623.11019    -309.4373    293.24143   -4549.5937    1086.2455    1142.4573    1023.0584    115.73779            0 
733500000    7.335e+08    293.10926    101167.02    764.68584     0.867463   -1233.6829    2041.8298    1291.3301     1197.305   -194.57759   -130.99525   -104.35786   -336.34671    293.13147   -4566.4682    1052.2208     1120.095     1054.428    106.04143            0 
733600000    7.336e+08    295.55748    101167.02    367.62782     0.867463    -1198.318    2104.5537    774.84799    280.51108    47.524403    98.818998    305.00645      201.864    295.57951   -4545.5657    1067.7837    1128.2203     1048.568    102.67577            0 
733700000    7.337e+08    294.05774    101167.02    900.39393     0.867463   -1192.7496    2093.3623     1134.234    380.66233    1186.2855   -182.43097  -0.88095696     481.7073    294.08069   -4553.9614    1076.4535    1140.7447    1032.5365     111.4771            0 
733800000    7.338e+08    290.08833    101167.02   -68.630369     0.867463   -1227.1626     2014.591    633.44352   -453.28526   -386.04937    145.72432   -50.029603   -604.09857    290.11065    -4562.883    1059.0731    1159.7023    1001.1384    115.80662            0 
733900000    7.339e+08    291.50644    101167.02    890.05365     0.867463   -1208.8654    2048.7357    323.56634    875.86061     1470.734   -360.19381    257.84262   -523.54408    291.52855   -4528.5417    1038.0392    1128.7001    1041.8734    111.06366            0 
734000000     7.34e+08    297.64637    101167.02    717.08957     0.867463    -1238.227    2087.9881    994.75104    1129.0133    27.504342     35.24338   -800.56798    463.76305    297.66902   -4565.5428     1040.517    1124.9146    1047.6666    114.21756            0 
734100000    7.341e+08    296.89167    101167.02    184.22694     0.867463   -1175.3572    2142.4241   -198.25081    1094.8087   -343.87704   -241.12916    396.25292    66.674276    296.91253   -4528.3894    1099.0143    1152.7779    986.96109    114.27894            0 
734200000    7.342e+08    290.23861    101167.02    469.43132     0.867463   -1180.9858    2062.4471    583.86287    319.32239    505.10872   -78.201791   -456.92317   -232.47961    290.26031   -4507.6248    1032.7439    1135.9143    1041.2191    116.76168            0 
734300000    7.343e+08    291.95618    101167.02    1226.4251     0.867463    -1208.575    2054.0519     1484.256    1445.2645    749.75475    401.10515    -2.795403    658.02532    291.97753   -4543.1755    1047.5243      1110.36    1074.4566    102.25961            0 
734400000    7.344e+08    295.67018    101167.02    1063.8179     0.867463   -1228.0643    2076.0668    2306.6278    963.37499   -78.549129   -800.07375   -152.72094    59.535779    295.69175   -4556.6343    1046.6841    1142.1916    1028.1722    111.52215            0 
734500000    7.345e+08    294.18064    101167.02    1100.7767     0.867463   -1199.8881    2087.5974    766.02136    1015.0255    1521.2833   -473.17928    174.16015   -102.09429    294.20315   -4579.8661    1111.7334    1139.5486    1021.3379    107.35805            0 
734600000    7.346e+08    295.79877    101167.02    898.59171     0.867463   -1188.5257    2117.0424     961.9769    1449.8214    283.97683   -272.79446    63.051482   -564.18434    295.82168   -4552.8508    1041.5582    1192.7398    1015.8508    114.17619            0 
734700000    7.347e+08    295.06093    101167.02    973.23725     0.867463   -1271.1088    2026.2139    1374.4456    636.09321    909.17298   -325.89869     586.5197   -345.85795     295.0839   -4571.8388    1057.4475    1137.1863     993.6664    112.42981            0 
734800000    7.348e+08    296.37255    101167.02    1330.5817     0.867463   -1163.4199    2148.5603    1411.9681    1792.0417    787.73536   -385.70021    430.69246   -16.944396    296.39676    -4562.458    1050.6219     1196.612    1041.0033    110.80089            0 
734900000    7.349e+08    294.20592    101167.02    713.38919     0.867463   -1312.0539     1975.714    764.01009    167.66748      1208.49    307.46139    219.25421    71.300388    294.22715   -4546.6253    1034.9021    1121.6751     967.6038    110.39033            0 
735000000     7.35e+08    288.93906    101167.02     1609.666     0.867463    -1245.192    1983.7185    1611.4391    2243.6873    973.87156    608.74741   -464.45589    48.540437    288.96027   -4534.5984    1027.6231    1144.4179    1007.1472    110.21811            0 
735100000    7.351e+08    290.98539    101167.02    1185.0743     0.867463   -1201.3537    2050.4246    1439.2948    841.27827    1274.6497    202.14029    212.22544    544.67983    291.00723   -4559.3412    1055.8895    1129.2941    1051.1634    121.64045            0 
735200000    7.352e+08    293.48997    101167.02    1427.5728     0.867463   -1217.5452    2062.2218    2228.5271     1289.659    764.53226   -429.62309   -312.07274   -134.13966    293.51291   -4537.6748    1073.5576    1125.6453    1019.1001    101.82656            0 
735300000    7.353e+08    303.66081    101167.02    1760.3559     0.867463   -1226.8468      2166.58    2433.4945    1382.0399    1465.5333    219.52279   -90.060932    323.02287    303.68343   -4560.0305     1055.255     1155.735    1009.6195    112.57419            0 
735400000    7.354e+08    299.92516    101167.02     984.4198     0.867463   -1205.4249    2146.2558    236.13466    1986.8097    730.31507  -0.29568546   -191.77293    318.06837    299.94696    -4570.973    1086.2352    1105.4729     1065.973    107.86701            0 
735500000    7.355e+08    293.86238    101167.02   -124.89555     0.867463     -1158.35    2125.5787   -599.25334   -153.22526    377.79195   -133.62163    586.47471    40.663926    293.88406   -4527.9539     1083.416    1185.7758    987.11159    113.30039            0 
735600000    7.356e+08    297.12595    101167.02    1469.7171     0.867463   -1203.3175    2117.0819    1470.7107    1795.3653    1143.0752   -218.76769   -669.93759   -206.45584    297.14863   -4514.5227    1040.0006    1159.7962    1006.7604    104.64786            0 
735700000    7.357e+08    295.28528    101167.02     564.0759     0.867463   -1253.5903    2046.2395    766.71463     527.2936    398.21948   -69.162531    222.06551    674.33866    295.30648      -4540.5    1012.5891    1092.5464    1079.3228    102.45128            0 
735800000    7.358e+08    289.46268    101167.02    1248.7134     0.867463   -1108.2053    2126.5566    946.63799    1005.0942    1794.4082   -30.421046   -791.45125    613.95812    289.48423   -4515.0505    1095.4978    1143.4207    1066.0287    101.89796            0 
735900000    7.359e+08    295.94906    101167.02    1109.9498     0.867463   -1222.2097    2085.0379    1485.1418    874.35221    970.35537    935.50734   -498.78285   -658.88618    295.96938   -4534.1464    1039.4791    1099.5881    1065.8033    107.06618            0 
736000000     7.36e+08     298.0404    101167.02     388.8979     0.867463    -1224.488    2106.1305    230.35963    1018.3603   -82.026195    142.17175    648.41527   -651.78384     298.0621   -4526.1874    1027.1134    1090.2208    1065.4795    118.88579            0 
736100000    7.361e+08    285.33432    101167.02    620.97203     0.867463   -1211.9505    1976.6767    315.72148     1318.502    228.69256   -319.62382   -366.39531    786.90468    285.35471   -4530.4769    1035.7542    1130.0069    1043.1256    109.63976            0 
736200000    7.362e+08    298.12544    101167.02     446.3368     0.867463   -1270.6149    2060.9538   -227.42866    958.54955    607.88951    107.20647    162.45159    253.60973    298.14769   -4532.6414    1048.0795    1075.4106    1025.7843    112.75213            0 
736300000    7.363e+08    289.01511    101167.02   -68.287891     0.867463   -1195.5086    2034.2516   -552.50491   -25.476037    373.11728    283.13413   -114.07189   -109.55039    289.03613   -4547.9545    1062.0115    1151.6875    1026.7291     112.0178            0 
736400000    7.364e+08    291.94715    101167.02    1424.3284     0.867463   -1183.2874    2079.2386    1856.1246    1058.6852    1358.1755   -496.00855    201.51347   -142.30394     291.9681   -4558.5414    1059.3273    1130.9312    1077.7134     107.2821            0 
736500000    7.365e+08    291.87137    101167.02    1618.8657     0.867463   -1216.9092      2044.77    1518.8009    1236.4325    2101.3639     270.9844   -258.60381   -334.52829    291.89359   -4569.3711    1049.4703    1122.8588    1076.9301    103.20272            0 
736600000    7.366e+08    291.67055    101167.02    866.61553     0.867463   -1130.5374    2128.8976    1151.7407    494.15723    953.94871   -90.827602    279.47701   -29.654454     291.6941   -4526.9605    1059.4605    1156.4881      1066.23    114.24452            0 
736700000    7.367e+08    290.10303    101167.02    970.10697     0.867463   -1189.9295    2051.9884    1038.0922    1456.1634    416.06528    234.11382   -333.81418    566.27922    290.12631   -4530.4161    1067.2011    1120.2439    1039.9431    113.09856            0 
736800000    7.368e+08    289.48247    101167.02    553.68969     0.867463   -1156.6682    2078.3149   -307.46909    1479.4891     489.0491   -185.79028    228.42196    547.50746    289.50522   -4530.6481     1099.688    1118.5013     1047.673    108.11772            0 
736900000    7.369e+08    297.65704    101167.02   -398.57477     0.867463   -1200.4434     2125.891   -160.46345    294.89862   -1330.1595   -486.51152   -268.08948    224.38128    297.68054   -4555.7301    1055.1545    1130.0451    1064.8258    105.26122            0 
737000000     7.37e+08    290.11208    101167.02    984.69707     0.867463   -1173.1255    2068.8935    1242.5287    712.08849    999.47403   -220.89292    96.021715    1277.2393    290.13351   -4540.9124    1038.6449    1167.0138    1054.5862    107.54206            0 
737100000    7.371e+08    298.20499    101167.02    825.85798     0.867463   -1195.3795    2137.0782    96.852326    1239.8309    1140.8907    85.737629    191.97056   -113.17406    298.22756   -4549.8124    1063.3235    1111.9932     1067.099    112.01734            0 
737200000    7.372e+08    293.66492    101167.02    535.06225     0.867463   -1165.1578    2116.5643    40.568581    480.07904    1084.5391   -605.08041    496.87063    204.36188    293.68474   -4556.9021    1059.0293    1175.7453    1052.0098    104.95987            0 
737300000    7.373e+08    292.84739    101167.02    990.61434     0.867463   -1205.3355    2067.2508    1324.2201    1338.5148    309.10807   -99.627501    52.965677   -467.48435    292.86986   -4541.7821    1005.1346    1155.9857    1062.9795    112.34672            0 
737400000    7.374e+08    285.49493    101167.02    952.93029     0.867463   -1191.6584    1998.7637    432.39527    730.47978    1695.9158   -247.81573   -217.06703    -54.55309    285.51699   -4530.2374    1089.7386    1083.2438     1052.863    112.73363            0 
737500000    7.375e+08     298.1266    101167.02    1191.5075     0.867463   -1143.0081    2188.5737    629.27435    1850.3489    1094.8992     310.0087    277.23807     34.35613    298.14719   -4523.8538    1035.9621    1149.5873      1080.82    114.47634            0 
737600000    7.376e+08    291.44926    101167.02    1226.6723     0.867463    -1218.696    2038.2661     619.4824    1038.2945    2022.2399    263.36765   -102.89605   -394.76941    291.47124     -4567.06    1049.9895    1160.1176    1023.1233     115.1336            0 
737700000    7.377e+08    288.10058    101167.02    749.79841     0.867463   -1180.6306    2038.9098   -286.00859    1117.2037    1418.2002    656.56634    258.82876   -436.70712     288.1225   -4533.5201    1041.1338    1160.8323    1038.8806     112.0427            0 
737800000    7.378e+08    292.55443    101167.02     617.0795     0.867463   -1180.7394    2088.5729    116.64696    1401.1011    333.49046   -359.47128   -98.991526    572.74734    292.57694   -4531.7519    1073.3739    1134.7758    1031.6142     111.2486            0 
737900000    7.379e+08    297.54963    101167.02    1223.0915     0.867463   -1145.4328    2179.7012    1228.2404    1573.8959    867.13835   -257.02319    262.35124   -168.50274    297.57137   -4547.2817     1078.292    1124.3257     1094.554    104.67723            0 
738000000     7.38e+08    292.53275    101167.02    384.25625     0.867463   -1210.4106    2058.6596    674.66619    548.51607   -70.413528   -474.94099    214.86622    -176.9215    292.55414   -4558.9843    1031.1863    1152.5849    1054.2708    110.53171            0 
738100000    7.381e+08    293.68215    101167.02     940.1682     0.867463   -1143.4124    2138.5023    1121.5197    773.71962    925.26529   -473.04398    869.23554    -76.53974    293.70731   -4561.6505    1081.9513    1155.0696    1068.4731    112.74405            0 
738200000    7.382e+08    295.59309    101167.02    1155.2112     0.867463   -1153.9995    2149.2701    1392.0921    841.42749     1232.114   -59.887469    210.57492    442.32579    295.61606   -4520.7507    1071.0239    1118.7505    1068.5712     108.4055            0 
738300000    7.383e+08    294.67422    101167.02    1758.8975     0.867463   -1147.2412      2145.76    2194.1387    1758.0556    1324.4982   -783.23676   -503.48328    470.46013    294.69666    -4551.344    1065.8458    1175.2671    1038.5529    124.43702            0 
738400000    7.384e+08    292.03315    101167.02    1278.1726     0.867463   -1217.5203    2045.9667    1688.9876    1383.7375     761.7927   -267.79248    198.93017    708.16551    292.05572   -4536.3229    1056.7254    1104.0784    1050.6067    107.39215            0 
738500000    7.385e+08    290.05649    101167.02    1056.7065     0.867463   -1233.7246    2007.6732    952.81858    469.66536    1747.6355   -628.45152     283.4633    373.48546    290.08053   -4531.9671    1059.1205     1130.391    999.83933    108.89164            0 
738600000    7.386e+08    292.94524    101167.02    863.90125     0.867463   -1230.2274    2043.4524     946.9575    457.98631      1186.76   -528.19785   -561.11069   -36.381987    292.96451   -4526.4926     1049.943    1097.9201    1041.4421     106.9601            0 
738700000    7.387e+08    296.32577    101167.02    1073.1499     0.867463   -1186.0533     2125.404    965.78238    1753.1262    500.54095     486.3784    146.80604   -66.438054    296.34633   -4566.0628     1056.515    1122.9843    1088.5358    111.97436            0 
738800000    7.388e+08    293.53294    101167.02    858.89295     0.867463   -1280.6904    1999.5568     377.1573    1631.4937    568.02789   -461.83557   -297.72429   -541.56101    293.55551   -4543.3449    1047.3178    1093.6326    1017.4725     104.2316            0 
738900000    7.389e+08    289.77203    101167.02    1422.0835     0.867463   -1249.1601    1989.0588    1400.2979    1076.5476    1789.4052    808.29067   -111.19124    498.11547    289.79167   -4559.0117    1039.9451    1108.7825     1046.338    114.78596            0 
739000000     7.39e+08    295.60649    101167.02     1195.466     0.867463   -1223.8352    2079.5841    826.19674    1448.0782     1312.123   -971.02949   -483.11447    133.51939    295.62814   -4532.1749    1068.3693    1118.5831    1010.6138    110.77355            0 
[...]
1704200000   1.7042e+09    294.74625    101167.02    793.70242     0.867463   -1184.0212    2109.7849    1612.8724   -210.11303     978.3479   -742.93789    113.58695   -86.770148    294.75069   -4533.2916    1013.1304    1143.2296    1090.8186    102.09176            0 
1704300000   1.7043e+09    292.66168    101167.02    1262.8617     0.867463   -1108.0701    2162.4409    1306.1954     559.8763    1922.5133    28.039113    291.01007    320.64916    292.66503   -4506.7731    1074.7231    1128.1346    1073.8817    121.96365            0 
1704400000   1.7044e+09    286.80163    101167.02    851.88379     0.867463   -1138.1004    2066.9242    1348.1727    466.50194    740.97668   -101.99558   -597.59211    387.53854    286.80621   -4511.0426    1045.2849    1160.6985    1059.2329    107.72598            0 
1704500000   1.7045e+09    294.61896    101167.02    650.44658     0.867463   -1051.5083    2240.8753    715.55502     599.7877    635.99701   -73.038861   -230.26198    -264.7713    294.62407   -4542.3384    1121.9426    1153.8554    1101.7562    113.27593            0 
1704600000   1.7046e+09    290.75626    101167.02    804.08801     0.867463    -1111.559    2137.6587    265.07226    466.02899    1681.1628    475.39318   -62.459686    174.03918    290.76119   -4519.4172    1080.4354    1122.8835    1092.6043    111.93497            0 
1704700000   1.7047e+09    294.02141    101167.02    322.18072     0.867463   -1123.8566    2161.8493    400.94053    41.227042    524.37459   -570.34595   -225.72598    -338.1483    294.02484   -4544.7111    1084.9614    1161.5539    1064.4761    109.86308            0 
1704800000   1.7048e+09    289.11898    101167.02    408.62314     0.867463   -1224.4905    2006.4305    1050.6877    257.38393   -82.202236    437.29543    -515.9716   -26.263012    289.12294   -4563.4791    1035.8989    1147.4218    1038.0784    117.58952            0 
1704900000   1.7049e+09    295.38457    101167.02    336.31017     0.867463   -1069.0179    2231.9214    754.70447   -90.033094    344.25912    -57.26492   -139.02187   -53.870846    295.38838   -4523.6834    1074.2716    1192.0945    1073.1827     115.1167            0 
1705000000    1.705e+09    296.18411    101167.02    1337.1787     0.867463   -1166.2364    2143.6378    1287.8034    1195.4972    1528.2356   -104.74713    198.20474    549.13009    296.18902   -4550.5474    1103.7682    1102.4718    1069.8007    108.27026            0 
1705100000   1.7051e+09    298.80852    101167.02    732.28451     0.867463   -1108.4126    2230.7895    285.78162    1351.0707    560.00116    549.52363    120.44516    38.845301    298.81132   -4490.0243    1079.1255    1161.2357    1034.7366    106.51397            0 
1705200000   1.7052e+09    299.18363    101167.02    671.48594     0.867463   -1152.1396    2191.2545    554.77432    1139.0017    320.68185   -79.474509   -187.93412   -274.84055    299.18702    -4560.294    1108.4323    1121.6499     1068.463    109.60911            0 
1705300000   1.7053e+09    293.83819    101167.02    1140.5732     0.867463   -1191.6219    2092.0366    1192.6434    1215.9663    1013.1099    684.06086    162.67004   -22.202628    293.84044   -4554.2254    1046.0549    1169.8133     1035.637    111.09828            0 
1705400000   1.7054e+09    292.34024    101167.02    668.54411     0.867463   -1169.2199    2097.6989     343.1629    970.38559    692.08385   -424.37352     77.92258   -14.990894    292.34541   -4542.0584    1065.3255    1140.6061    1041.6018    125.30508            0 
1705500000   1.7055e+09    286.04991    101167.02    813.73566     0.867463   -1136.2119    2060.4122   -764.87286    1390.1767    1815.9031    105.01279   -490.60595    487.57011    286.05479   -4537.5403    1089.1098    1171.4047    1031.1582    109.65578            0 
1705600000   1.7056e+09    288.13308    101167.02    1773.0744     0.867463   -1140.3696    2079.5339    2030.5938    1118.5234    2170.1061    110.37001   -264.19155     246.6774    288.13718   -4521.6886    1067.1258    1163.9774    1043.2304     106.9853            0 
1705700000   1.7057e+09    299.44649    101167.02    808.60109     0.867463   -1222.4857    2123.8458    12.165121    1628.1978    785.44036   -123.63649    482.38246   -167.81047    299.45004    -4564.401    1040.9714     1143.613    1049.2458    108.08514            0 
1705800000   1.7058e+09    291.91772    101167.02    875.92854     0.867463   -1135.9035    2126.2937    991.78035    693.10708    942.89818    440.83631   -242.52804    323.15227    291.92198   -4528.6333    1104.2886    1136.5263    1038.5683    113.34672            0 
1705900000   1.7059e+09     286.6603    101167.02    268.81215     0.867463   -1127.9754    2075.4698   -392.69619    471.26332    727.86933   -296.88092   -643.62474    193.56404     286.6667   -4536.2712    1041.5008    1148.1954    1097.4484    121.15123            0 
1706000000    1.706e+09    294.94703    101167.02    1133.4379     0.867463   -1179.0654    2116.9845    1889.8435    883.27574    627.19429    155.90494    72.345914    354.20101    294.95245    -4554.455    1037.8815    1147.4474    1070.6606    119.40016            0 
1706100000   1.7061e+09    289.53838    101167.02     607.4635     0.867463   -1102.6783    2132.9295    1160.6457   -302.02786    963.77267    328.18226    105.99073    582.92879     289.5425   -4497.9586    1087.4999    1160.6291     1031.949    115.20215            0 
1706200000   1.7062e+09    295.48618    101167.02    1069.8865     0.867463   -1211.2802    2090.7946    551.50761    1448.9548    1209.1972   -593.09697    218.12437   -89.368223    295.49034   -4553.2882      1038.79    1170.8411    1025.7083    106.66855            0 
1706300000   1.7063e+09    291.59824    101167.02     1993.448     0.867463   -1174.5366    2084.0903    1757.4314     1805.033    2417.8795   -128.12681    391.83179    201.26725    291.60178    -4558.488    1125.4115    1130.3581    1018.1794    110.00237            0 
1706400000   1.7064e+09    295.71005    101167.02    943.26912     0.867463   -1148.4279    2156.1487   -18.607386    1544.5304    1303.8843    247.44737    418.75911   -177.65518    295.71513   -4517.4522    1072.8591    1154.3155    1026.1569     115.6927            0 
1706500000   1.7065e+09    297.32166    101167.02    758.48439     0.867463   -1160.2632    2162.3233    1012.7289    859.61327      403.111   -127.79457   -169.91288    147.98356    297.32763    -4571.582    1053.0002      1171.21    1069.5228    117.58574            0 
1706600000   1.7066e+09    298.01846    101167.02    1459.6358     0.867463   -1114.1297    2216.2435    1612.4539    1087.6999    1678.7535   -564.50719   -332.10522    175.24675     298.0244    -4517.351    1061.1005    1173.2673    1056.2069    112.64663            0 
1706700000   1.7067e+09    293.82546    101167.02    505.20912     0.867463   -1117.4162    2166.1001    684.20844    445.65699    385.76195   -140.48723   -171.42146    486.58648    293.83053   -4559.7547    1096.0495    1164.8398    1070.5232    110.92607            0 
1706800000   1.7068e+09    292.15609    101167.02    565.04648     0.867463   -1149.7199    2115.1411    1131.9881   -254.71565    817.86698   -871.09457   -489.45714   -330.57386    292.16039   -4532.6135    1081.4095    1170.5342    1027.6519    103.29804            0 
1706900000   1.7069e+09    289.61324    101167.02    283.43396     0.867463   -1133.3221    2103.1223    602.22108    738.33166   -490.25086   -332.35577    614.38548   -110.41892    289.61831   -4548.6307     1073.883     1145.915    1081.6149    113.89583            0 
1707000000    1.707e+09     287.8237    101167.02    590.62731     0.867463    -1093.859    2122.5872   -81.817101    370.02491    1483.6741   -121.81214    367.86633   -102.02419    287.82851   -4544.0439    1086.2937    1188.7991    1070.5841    104.50799            0 
1707100000   1.7071e+09     291.6808    101167.02     867.4433     0.867463   -1162.2512    2097.2983     495.2275    792.01647    1315.0859   -365.99453   -162.99341   -246.22228    291.68484    -4559.515    1083.3948    1131.8694    1076.0963    105.90335            0 
1707200000   1.7072e+09    292.14996    101167.02    541.77849     0.867463   -1107.3441    2157.4483    182.75746    308.97419    1133.6038   -417.01024    -111.8899    312.93166    292.15322   -4516.0851    1078.8673    1117.4456    1110.2164    102.21164            0 
1707300000   1.7073e+09     293.0881    101167.02    1006.2757     0.867463   -1262.9557    2012.3205    791.32807    704.54957    1522.9494     169.2635   -32.589301    221.75648    293.09052   -4563.7821    1040.9006    1081.4896    1064.9986    113.43758            0 
1707400000   1.7074e+09    296.66484    101167.02    1020.6308     0.867463   -1125.9113    2189.3351     452.6526    1148.7668    1460.4731    -58.89141    -254.4258    153.75081    296.66759   -4504.8803    1029.0215    1179.2842    1066.8618    103.80154            0 
1707500000   1.7075e+09    297.57642    101167.02    758.97372     0.867463    -1165.728    2159.7054    1113.3118    975.46495     188.1444   -485.46717    30.650934   -117.53094    297.57936   -4515.6568    1086.5756    1080.7806    1069.3476    113.22493            0 
1707600000   1.7076e+09    290.59957    101167.02    454.53611     0.867463   -1156.4203    2091.0465   0.55303843    381.39173    981.66357    435.08717   -141.74368   -718.82411    290.60297   -4587.9977    1070.7808    1176.0974    1076.4208     108.2785            0 
1707700000   1.7077e+09    296.36553    101167.02    862.21569     0.867463   -1035.6182    2276.2834    1535.0434    675.02761    376.57611    578.99664   -209.47823   -39.393077    296.36852   -4511.3291    1083.6503    1168.0933    1113.4211    110.54613            0 
1707800000   1.7078e+09    295.65337    101167.02    539.97148     0.867463   -1094.8692     2209.074    1084.7242   -394.18867    929.37889   -348.09134    352.91041   -538.16028    295.65686   -4535.9052    1094.0544    1165.2924     1065.521    116.16814            0 
1707900000   1.7079e+09    299.37017    101167.02    1666.1949     0.867463   -1170.4215    2175.0571    1798.4786    1373.8336    1826.2723   -85.088977   -223.25622   -492.74675    299.37355    -4551.229    1044.5234    1140.2136     1086.721    109.34945            0 
1708000000    1.708e+09    297.77014    101167.02    812.77965     0.867463   -1194.5923     2133.006    100.55683    1153.4062    1184.3759     523.2488    452.60879    431.02338    297.77191   -4541.4901    1070.1616    1104.2264    1064.8765    107.63339            0 
1708100000   1.7081e+09    294.65569    101167.02    968.96413     0.867463   -1160.2158    2132.5782    1604.0987    622.54329    680.25037    421.69496   -576.73051   -281.05485     294.6605    -4570.957     1084.173    1141.1036    1072.1648    113.29982            0 
1708200000   1.7082e+09    290.30449    101167.02    956.25367     0.867463   -1220.7942     2023.375    889.42367    925.48217    1053.8552   -64.150928    280.39953   -153.79641    290.30831   -4544.5411    1048.6607    1113.1304    1046.3138    115.64205            0 
1708300000   1.7083e+09    288.16709    101167.02    216.91374     0.867463   -1146.9595    2073.3241    299.17695    93.632371     257.9319   -543.68382   -502.57934    357.77253     288.1699   -4547.5349    1050.2527    1129.9597    1099.9716    120.39141            0 
1708400000   1.7084e+09    297.23896    101167.02   -64.649553     0.867463   -1195.0543     2126.608   -633.66049   -104.35345    544.06528   -207.38893   -96.790158   -56.351914    297.24358   -4527.7144    1023.5231    1171.5416     1028.547    109.04847            0 
1708500000   1.7085e+09     288.7458    101167.02    656.72752     0.867463   -1179.1967    2047.5541    630.88147    712.19805    627.10304   -484.37742   -1048.8067    154.71118     288.7513   -4541.2055    1083.5992    1154.4917    1016.8495    107.06833            0 
1708600000   1.7086e+09     298.1228    101167.02    1635.9406     0.867463   -1201.1482     2130.391    1503.1609    2004.6576    1400.0033   -322.83295   -121.81142    97.323662    298.12648   -4554.3837     1075.639    1136.2848    1033.2909    108.02065            0 
1708700000   1.7087e+09    289.83391    101167.02    2110.6111     0.867463   -1209.6977    2029.2127    1347.4169    2918.9696    2065.4469    255.91058   -298.99115   -437.40061    289.83878   -4521.5886    1013.5303    1148.9846    1044.2966    105.07941            0 
1708800000   1.7088e+09    293.31547    101167.02   -299.65648     0.867463   -1200.1558    2077.6613   -1190.4107   -315.92681    607.36802   -334.77468    56.479715    975.91193    293.31839    -4544.128    1057.9061     1188.092    986.62959    111.34455            0 
1708900000   1.7089e+09    293.43288    101167.02     753.2235     0.867463   -1228.0795    2051.0496    433.57089    658.57313    1167.5265   -142.17795     31.84709   -474.25149    293.43574   -4545.5889     1057.654    112Generated thermo.dat
Done!
stress
average  133.855
square average  18675.6
number of blocks  800
variance  .97367793379022408653
pxx
average  924.812
square average  857350
number of blocks  800
variance  1.60964462537542739437
pyy
average  936.313
square average  878993
number of blocks  800
variance  1.69961982182781099736
pzz
average  912.267
square average  835042
number of blocks  800
variance  1.87447349641172574248
xx
average  2268.8
square average  5.1493*10^06
number of blocks  800
variance  1.51927614343146980121
yy
average  2140.05
square average  4.58026*10^06
number of blocks  800
variance  .74665713349568957292
zz
average  2139.73
square average  4.57891*10^06
number of blocks  800
variance  .76282951896213350456
xx
average  -612.923
square average  378651
number of blocks  800
variance  1.92885849370813099053
yy
average  -514.155
square average  265945
number of blocks  800
variance  1.40962582579562580884
zz
average  -537.988
square average  291359
number of blocks  800
variance  1.55238198263185211447
rm: cannot remove `running.average.out': No such file or directory
stress
average  114.219
square average  16278
number of blocks  9000
variance  .59926065920154200179
average  130.582
square average  20676.5
number of blocks  19000
variance  .43678498118579315937
average  135.493
square average  21921.7
number of blocks  29000
variance  .35053392530980998939
average  137.095
square average  22321.7
number of blocks  39000
variance  .30071116455359532788
average  137.217
square average  22353.8
number of blocks  49000
variance  .26822526745636924859
average  137.023
square average  22281.6
number of blocks  59000
variance  .24378016878925007059
average  136.504
square average  22155.3
number of blocks  69000
variance  .22592669017478508913
average  136.079
square average  22021
number of blocks  70900
variance  .22229428641854482515
average  135.886
square average  21946.7
number of blocks  71900
variance  .22005483587680533624
average  135.669
square average  21865.1
number of blocks  72900
variance  .21782760953560159984
average  135.388
square average  21767.5
number of blocks  73900
variance  .21567747232932177191
average  135.17
square average  21689.1
number of blocks  74900
variance  .21362692546675658277
average  134.859
square average  21590
number of blocks  75900
variance  .21174505884978538910
average  134.562
square average  21496.2
number of blocks  76900
variance  .20993739100132242195
average  134.312
square average  21411
number of blocks  77900
variance  .20803150546425723741
average  134.124
square average  21341.6
number of blocks  78900
variance  .20612769443522440483
average  133.873
square average  21258.2
number of blocks  79900
variance  .20434026050947804270
average  133.855
square average  21251
number of blocks  80000
variance  .20413962669579857934
average  133.855
square average  21251
number of blocks  80000
variance  .20413962669579857934
average  133.855
square average  21251
number of blocks  80000
variance  .20413962669579857934
pressure, stress.strain, ktensor, virial are all concatenated
averages computed will all accumulated data until now
1.4782    1035.7634    102.61381            0 
1709000000    1.709e+09    296.24711    101167.02    966.55385     0.867463   -1176.1362    2134.4421    1746.0534     352.0799    801.52827   -97.961633   -88.060467    333.26808    296.25106   -4539.1411    1058.6407    1154.2465    1042.4767    107.64102            0 
1709100000   1.7091e+09    290.69327    101167.02    738.32093     0.867463   -1245.3612    2003.1526    523.69811    737.80324    953.46145   -660.25733     107.6377    -701.0615    290.69839   -4536.0326    1009.4014     1183.677    991.48355    106.10954            0 
1709200000   1.7092e+09    296.68103    101167.02    1484.9064     0.867463   -1120.4738    2194.9536    1801.4833    1004.6233    1648.6126   -515.30767   -218.45362    801.46596    296.68447   -4525.0638    1066.5557    1195.6127    1032.6202    109.80136            0 
1709300000   1.7093e+09    292.42031    101167.02    552.92744     0.867463   -1122.9268    2144.8867    -94.08649    1205.6452    547.22365   -392.98589    49.771691   -106.37081    292.42463   -4527.3573    1086.4362    1146.3742    1063.4976     108.1224            0 
1709400000   1.7094e+09    298.18875    101167.02    779.06169     0.867463   -1129.4946    2202.7816    1903.5937   -236.39384    669.98516     230.2486    157.28109    225.83031    298.19321   -4521.5177    1051.2324    1158.0408    1069.8573    112.89246            0 
1709500000   1.7095e+09     291.1997    101167.02    613.46724     0.867463   -1123.7272    2130.4461    -109.8488      1194.46    755.79051   -405.52885    256.50931    874.41167    291.20517   -4521.3536    1057.7727    1161.4816    1071.1833    107.18895            0 
1709600000   1.7096e+09    289.36726    101167.02     1275.649     0.867463   -1042.8418    2190.8538    1010.3936    1909.8653     906.6881   -451.69535    145.61846    28.444801    289.37091   -4494.2309    1084.5043    1170.3358    1079.8442    116.70482            0 
1709700000   1.7097e+09    297.19114    101167.02    733.83499     0.867463   -1131.5876    2189.5403    423.30011    949.40807     828.7968   -362.42775    425.22153    872.42838    297.19633   -4527.2986    1095.0721    1112.1639    1077.8596    110.61543            0 
1709800000   1.7098e+09    297.74271    101167.02    1483.7257     0.867463   -1148.2009    2179.0909    348.85193    2232.6063    1869.7189   -597.94436    399.24381    7.2274572    297.74737   -4555.7929    1071.7439    1157.4886    1066.4913    111.86822            0 
1709900000   1.7099e+09    293.68002    101167.02    395.43107     0.867463   -1196.5771    2085.3139    650.45644    632.64991   -96.813137   0.45042164   -190.42927    88.200548    293.68363   -4552.4467    1040.3979    1137.8525    1070.8563    106.76307            0 
1710000000     1.71e+09    286.01226    101167.02    1318.2526     0.867463   -1148.0825    2048.1207    1117.4271    1385.5545    1451.7762   -237.01829   -402.66443    97.752661    286.01592   -4562.5591    1053.8185    1180.7766    1074.1821    105.69934            0 
Loop time of 59312.4 on 48 procs for 200000000 steps with 3750 atoms

Pair  time (%) = 20156.7 (33.9841)
Bond  time (%) = 4125.61 (6.95574)
Neigh time (%) = 10597 (17.8664)
Comm  time (%) = 17700 (29.842)
Outpt time (%) = 1.41012 (0.00237744)
Other time (%) = 6731.67 (11.3495)

Nlocal:    78.125 ave 92 max 69 min
Histogram: 7 6 4 9 6 5 5 5 0 1
Nghost:    1315.81 ave 1349 max 1288 min
Histogram: 4 7 3 6 4 8 6 6 2 2
Neighs:    6349.46 ave 7755 max 5377 min
Histogram: 4 4 6 10 4 14 3 2 0 1

Total # of neighbors = 304774
Ave neighs/atom = 81.2731
Ave special neighs/atom = 6.26667
Neighbor list builds = 22291855
Dangerous builds = 0
System init for write_restart ...

real	4947m54.104s
user	0m0.075s
sys	0m0.218s
