LAMMPS (10 Feb 2015)
Read molecule SQL:
  30 atoms with 4 types
  29 bonds with 1 types
  34 angles with 1 types
  31 dihedrals with 2 types
  6 impropers with 1 types
Reading restart file ...
  restart file = 10 Feb 2015, LAMMPS = 10 Feb 2015
  triclinic box = (112.339 112.339 112.339) to (157.661 157.661 157.661) with tilt (0 0 0)
  3 by 4 by 4 MPI processor grid
  3750 atoms
  3625 bonds
  4250 angles
  3875 dihedrals
  750 impropers
250 atoms in group endatoms
60 atoms in group samplechains
WARNING: New thermo_style command, previous thermo_modify settings will be lost (../output.cpp:665)
Neighbor list info ...
  1 neighbor list requests
  update every 1 steps, delay 0 steps, check yes
  master list distance cutoff = 10.3
Setting up run ...
Memory usage per processor = 2.18354 Mbytes
Step Time Temp Volume Press Density PotEng TotEng Pxx Pyy Pzz Pxy Pyz Pxz myT 
       0            0    293.35911    93093.952    5226.5405     0.942689   -1347.9981    1930.3066      4449.67    5632.8427    5597.1089    311.15965    124.99316    692.97898    293.35911 
    1000         1000    293.54631    93093.952    4292.0434     0.942689   -1456.1973    1824.1994    4534.1458    3773.6601    4568.3243    -133.8234   -624.90263    350.07409    293.54631 
    2000         2000    294.42317    93093.952    3739.5354     0.942689   -1325.8934    1964.3023    4183.3519    3560.7198    3474.5344   -702.99191    549.51379     318.9622    294.42317 
    3000         3000    287.89813    93093.952    3826.0387     0.942689   -1416.5367    1800.7412    3015.2801    4322.2358    4140.6001   -962.57523   -203.48123    291.14964    287.89813 
    4000         4000    295.39523    93093.952    4586.0885     0.942689   -1293.1244    2007.9341    4068.4159    4950.6641    4739.1856   -756.41446   -62.448762   -211.72287    295.39523 
    5000         5000    284.50511    93093.952    4219.1134     0.942689   -1387.7669    1791.5939    4474.5595     4324.109    3858.6717   -585.67511   -78.456804     427.5634    284.50511 
    6000         6000    293.85142    93093.952    3729.8318     0.942689    -1287.697    1996.1094      3127.59    4638.3244     3423.581   -545.69333   -202.86392    86.950889    293.85142 
    7000         7000    292.29765    93093.952    3707.0495     0.942689    -1442.254    1824.1889    3534.0952    3426.7401    4160.3133   -1248.5281    175.18768    67.921277    292.29765 
    8000         8000     294.3182    93093.952    3925.8173     0.942689   -1293.9975    1995.0251     3545.881    4716.1007    3515.4702   -223.05718    651.03927    81.976818     294.3182 
    9000         9000    295.16508    93093.952    3650.0135     0.942689   -1282.9477    2015.5388    3955.0041    3473.0392    3521.9971   -907.22194   -367.73017   -411.49404    295.16508 
   10000        10000    293.93013    93093.952    4389.2389     0.942689   -1226.3114    2058.3746    4335.7144     5033.246    3798.7563   -1794.5686    601.11239   -909.77887    293.93013 
   11000        11000    281.85763    93093.952    3855.3572     0.942689   -1324.1658    1825.6093    2938.1168    5245.0777    3382.8771   -779.63706     2.724996   -44.494273    281.85763 
   12000        12000    299.95491    93093.952     4847.738     0.942689   -1198.9336    2153.0796    5372.4669     4135.849    5034.8981   -1605.8953   -525.51152    98.647914    299.95491 
   13000        13000    288.48419    93093.952     3614.506     0.942689   -1285.5081    1938.3191    2935.8721    3552.4778    4355.1679   -1771.9775    63.379393    36.605083    288.48419 
   14000        14000    290.49549    93093.952    4625.4155     0.942689   -1242.8309    2003.4727    3636.8646    6149.5798     4089.802   -2163.0007    53.261969    210.70539    290.49549 
   15000        15000    294.50368    93093.952    3622.0863     0.942689   -1264.4435    2026.6518    3654.0632    4005.4236     3206.772   -1763.4167   -524.31156   -198.12875    294.50368 
   16000        16000    293.23416    93093.952    4317.2205     0.942689   -1256.5936    2020.3148    4194.4117    4408.2418     4349.008   -1837.0781   -74.287192    1246.5643    293.23416 
   17000        17000     295.7694    93093.952    4509.7079     0.942689    -1171.629     2133.611     5102.689     3648.393    4778.0416   -1702.3966   -875.36443    212.49662     295.7694 
   18000        18000    287.76296    93093.952    5069.9225     0.942689   -1099.5892    2116.1783    4759.1929    4961.0594    5489.5154    -1468.028    895.27097   -1187.2741    287.76296 
   19000        19000    290.85406    93093.952     3875.895     0.942689   -1187.0937    2063.2169    2866.2727    4944.3173     3817.095   -2051.9532   -38.789396    201.61728    290.85406 
   20000        20000    296.59237    93093.952    4209.5933     0.942689   -1111.4523    2202.9843    4082.5189    4062.3427    4483.9182   -2365.3933    294.26419   -974.42842    296.59237 
   21000        21000    287.71377    93093.952    4014.8358     0.942689   -1095.1301    2120.0877    3980.2131    4073.8245    3990.4699    -2192.154   -22.365055    694.20854    287.71377 
   22000        22000      292.904    93093.952    4258.1338     0.942689   -1108.8359    2164.3829     4018.982    3945.7454    4809.6739   -1278.2211    -715.7421    426.70488      292.904 
   23000        23000    295.10425    93093.952    4720.1234     0.942689   -1034.3088     2263.498    3885.4221    4607.0538    5667.8943   -1911.8308    863.44098    47.703113    295.10425 
   24000        24000     294.5958    93093.952    5184.0451     0.942689   -1192.1506    2099.9742    4733.3047    6201.1566    4617.6739   -1170.6291   -920.22259     343.8696     294.5958 
   25000        25000    297.76415    93093.952    4475.8352     0.942689   -1099.8419    2227.6895    3668.3632    4751.1524    5007.9899   -1767.5413   -463.46934    -287.8807    297.76415 
   26000        26000    289.41438    93093.952    4102.8332     0.942689   -1028.5225    2205.6997    3935.4111    4038.5114    4334.5771   -2296.9032    197.06489    530.94567    289.41438 
   27000        27000    292.09373    93093.952    4484.2575     0.942689    -995.3582    2268.8059    4489.3615    4709.9436    4253.4673   -2070.5303    308.40838   -390.71343    292.09373 
   28000        28000    287.98444    93093.952     4968.766     0.942689   -926.30584    2291.9366    4787.9409    6043.5632    4074.7938   -1418.9529    535.73127    299.80741    287.98444 
   29000        29000     293.8802    93093.952    4553.7941     0.942689   -1040.2727    2243.8553    4053.5265    4794.2672    4813.5886   -2233.5184     325.8761    957.47733     293.8802 
   30000        30000     299.2079    93093.952    4467.9843     0.942689   -1023.1937    2320.4716    4553.6925    5071.2896    3778.9707   -1183.2534    574.25258   -451.68285     299.2079 
   31000        31000    293.91204    93093.952    4304.4845     0.942689   -999.88837    2284.5954    4336.0208    4968.1259    3609.3067   -2490.3576    378.38791    378.14317    293.91204 
   32000        32000    295.81657    93093.952    4573.3504     0.942689   -968.42543    2337.3415    4428.7703    4979.1453    4312.1357   -1522.6813    676.73994    427.60366    295.81657 
   33000        33000    298.22765    93093.952    4231.7943     0.942689   -993.41017    2339.3008    3769.3001    3663.1062    5262.9766   -1063.1355    1280.4655    -674.2178    298.22765 
   34000        34000    290.86428    93093.952    4247.5507     0.942689   -935.37756    2315.0473    4501.0287    4012.7389    4228.8844   -1927.4871   -420.79419    68.260663    290.86428 
   35000        35000    293.74697    93093.952    5014.0785     0.942689   -985.61112     2297.028    5017.4398    6001.2525    4023.5433   -872.04959    -551.0823   -182.94054    293.74697 
   36000        36000     293.7743    93093.952    4608.9458     0.942689   -950.20065    2332.7438    3701.6508    5386.0164    4739.1701   -1989.2719    554.36693    346.65283     293.7743 
   37000        37000    295.31418    93093.952    5583.7448     0.942689   -937.34938    2362.8034    5800.1277    5304.8153    5646.2912   -2314.1135    764.37842    -207.9849    295.31418 
   38000        38000    290.52924    93093.952    4372.6119     0.942689   -903.03374    2343.6471    2988.8151    5387.2815     4741.739   -1605.7629   -258.79601    512.62297    290.52924 
   39000        39000    290.37617    93093.952    4634.4541     0.942689   -992.64827     2252.322    4429.0761    5072.8252    4401.4609   -1814.7395   -236.63504   -50.100743    290.37617 
   40000        40000    294.88213    93093.952    4193.8477     0.942689   -885.00262    2410.3219    4132.2369    4084.2341    4365.0722   -1413.0514    660.71233    381.03414    294.88213 
   41000        41000    295.89957    93093.952    4259.9477     0.942689   -901.08908    2405.6055    3606.8943    5695.5942    3477.3546   -1487.0577    639.42673    207.55114    295.89957 
   42000        42000    293.23546    93093.952    4843.3279     0.942689   -936.87459    2340.0483    5123.3793    6263.8389    3142.7654   -1120.8601    495.61141   -819.02795    293.23546 
   43000        43000     297.2496    93093.952    4834.8739     0.942689   -826.86561    2494.9156     5613.059    4695.7219     4195.841   -1330.3874   -1053.5583    273.83358     297.2496 
   44000        44000    292.26794    93093.952    4949.8224     0.942689   -953.15756    2312.9533    4194.8556    5435.3277     5219.284   -1979.4948    176.61062    170.58214    292.26794 
   45000        45000    291.99761    93093.952    5033.0343     0.942689   -869.23288    2393.8571    4600.1964    4346.5329    6152.3734   -1799.6951    781.50049    22.623471    291.99761 
   46000        46000    300.06435    93093.952    5261.8619     0.942689   -876.75281    2476.4833     4960.904    4844.8533    5979.8284   -1177.6445    -241.9502    267.97034    300.06435 
   47000        47000    288.86562    93093.952     5555.836     0.942689   -874.42287    2353.6669    5956.2388    5758.7143    4952.5549   -871.97816    227.37861   -644.15956    288.86562 
   48000        48000    293.51411    93093.952    4578.0058     0.942689    -798.7482    2481.2887    4531.2665    4889.6694    4313.0814   -1886.9136   -585.85043    503.22697    293.51411 
   49000        49000    285.99508    93093.952    4772.1098     0.942689   -852.53312    2343.4782    5363.0559     4612.567    4340.7065   -979.41783   -395.59548   -905.63661    285.99508 
   50000        50000    298.47021    93093.952    6065.7363     0.942689   -815.46641    2519.9552    5892.9049    6910.2787    5394.0255   -1817.4148   -15.820284   -294.00038    298.47021 
   51000        51000    287.71488    93093.952     5157.078     0.942689   -880.62938    2334.6008    5234.5585    4944.4822    5292.1933   -1830.9806   -142.47192    895.05274    287.71488 
   52000        52000    295.96277    93093.952    5515.4158     0.942689   -839.51054    2467.8902    6074.5264    5115.3197    5356.4014   -1381.1875    228.09844    264.59505    295.96277 
   53000        53000    294.35963    93093.952    5424.0263     0.942689    -909.7517    2379.7339    5716.6714    5206.8187    5348.5889   -1315.6285    402.96394   -247.95498    294.35963 
   54000        54000    288.97672    93093.952    5076.8529     0.942689   -866.70249    2362.6288    4945.0615    4291.0129    5994.4844   -2196.9439   -87.907153   -110.70146    288.97672 
   55000        55000    296.17466    93093.952     5483.244     0.942689   -862.31993    2447.4488    4623.2664    5211.5884    6614.8774   -1313.1697   -353.35023    752.07374    296.17466 
   56000        56000    295.46236    93093.952    5546.6887     0.942689   -894.50016    2407.3085     5345.504    5746.8232    5547.7388   -1156.1575   -164.08218     267.4736    295.46236 
   57000        57000    287.03813    93093.952    5086.7813     0.942689   -855.04384    2352.6236    5100.3555    5533.7962    4626.1921   -1874.6547   -71.427004    379.66518    287.03813 
   58000        58000    289.89618    93093.952    5615.5159     0.942689   -806.73288    2432.8734    5924.3218    4365.0095    6557.2165   -2155.4615    475.27216    124.20151    289.89618 
   59000        59000    295.21034    93093.952    4958.6533     0.942689   -875.03394    2423.9585    4278.4114    5562.3905    5035.1581   -692.56497   -225.69049    566.12125    295.21034 
   60000        60000    293.94063    93093.952    5398.6255     0.942689   -845.85982    2438.9434    4831.6489    6098.5292    5265.6983    -1060.204    556.38556   -151.97162    293.94063 
   61000        61000    297.10947    93093.952    5010.5032     0.942689   -821.23998    2498.9752    4877.2788    4907.7351    5246.4956   -1257.6586   -470.59516   -86.437231    297.10947 
   62000        62000     291.9203    93093.952    5244.1623     0.942689   -923.03686    2339.1891    4305.3195    5461.6315    5965.5359   -1907.7645    451.95364   -617.36037     291.9203 
   63000        63000    299.03411    93093.952    6305.3463     0.942689   -811.18531    2530.5379    6383.1313    5979.2464    6553.6612    -1261.025   -415.69109    259.46421    299.03411 
   64000        64000     291.4333    93093.952    5181.8285     0.942689   -790.65952    2466.1242    4512.2533    5954.2388    5078.9932   -1149.6619   -357.46068   -110.71619     291.4333 
   65000        65000    290.61044    93093.952    5288.5309     0.942689   -873.95782    2373.6303    4585.4125    5760.6028    5519.5776   -1636.8359    504.88037    381.92476    290.61044 
   66000        66000     296.9468    93093.952    5088.6242     0.942689   -780.27522    2538.1222    4548.0444    6245.4483    4472.3799   -1523.0912    583.55236    58.118429     296.9468 
   67000        67000     281.5681    93093.952    4471.7761     0.942689   -859.10026    2287.4392    4325.0941     4650.588    4439.6461   -1432.7665    501.65297    -31.33416     281.5681 
   68000        68000    292.91409    93093.952    5109.1697     0.942689   -827.93135    2445.4003    5408.5288    4398.3988    5520.5815   -1033.2801     30.78012    67.955782    292.91409 
   69000        69000    291.74856    93093.952    5257.2324     0.942689   -867.27681      2393.03    4774.8384    5458.7322    5538.1265   -1105.8002    81.959782    416.99598    291.74856 
   70000        70000    288.77051    93093.952    5151.3751     0.942689   -765.39973    2461.6272    3829.0639    5974.1282    5650.9332   -950.96875    408.08221     215.6872    288.77051 
   71000        71000    291.22731    93093.952    5329.0671     0.942689   -788.48766    2465.9941    5758.0826     5664.615    4564.5037   -841.25515    -569.6476    333.21546    291.22731 
   72000        72000    297.35796    93093.952    4851.3446     0.942689   -886.09873    2436.8934    4649.9356    5214.4811    4689.6171   -1023.6352    712.27265    375.35819    297.35796 
   73000        73000    290.69051    93093.952    4872.6676     0.942689   -837.15014    2411.3329    3792.6666     5107.527    5717.8091   -126.68642   -43.222567    421.04937    290.69051 
   74000        74000    295.42183    93093.952     5774.893     0.942689   -859.41528    2441.9404    6282.4328    5672.5709    5369.6752   -1400.6692   -383.88328      531.143    295.42183 
   75000        75000    298.47619    93093.952    5936.3927     0.942689   -800.94471    2534.5437    5336.0121    5579.4519     6893.714   -1662.8117    122.22731    460.29034    298.47619 
   76000        76000    293.63997    93093.952     4872.274     0.942689   -863.57542     2417.868    4592.9204    5641.7007    4382.2008   -712.07281   -610.24203    138.60455    293.63997 
   77000        77000    293.27512    93093.952    4573.3642     0.942689   -849.04419     2428.322    4642.6391    5029.0482    4048.4054   -431.36875   -491.25292   -598.85057    293.27512 
   78000        78000    288.95425    93093.952    3840.9679     0.942689   -781.43427    2447.6459    3193.1776    4363.3823    3966.3438   -1842.6518   -292.59866   -281.45203    288.95425 
   79000        79000    293.84797    93093.952    4947.6026     0.942689   -853.03208    2430.7357     5070.652    4817.0043    4955.1515    -1617.455   -201.25672   -456.79968    293.84797 
   80000        80000    296.27569    93093.952    4374.6276     0.942689   -824.16505    2486.7326    5156.8209    4477.1654    3489.8964   -1469.1881   -1477.7971   -569.08483    296.27569 
   81000        81000    288.82408    93093.952    5121.0449     0.942689   -811.90015    2415.7254    5554.9539    5934.4138    3873.7669   -1640.9816    696.45968    119.77846    288.82408 
   82000        82000    292.16371    93093.952    5106.1773     0.942689   -798.70171    2466.2444    5442.3837    4768.9859    5107.1624   -1513.9983   -28.644165    140.47722    292.16371 
   83000        83000    294.73852    93093.952    4019.8693     0.942689    -765.9197       2527.8    3243.4534    4450.9503    4365.2043    -1411.682   -457.71219    600.23109    294.73852 
   84000        84000     294.5881    93093.952    5313.5111     0.942689   -808.15365    2483.8852    5018.8839    4957.2636    5964.3856   -1316.3726    559.09648    459.71206     294.5881 
   85000        85000    291.01128    93093.952    5583.9815     0.942689   -769.66986    2482.3978    5223.4693    6352.5851    5175.8902    -511.2783   -203.51643   -520.29908    291.01128 
   86000        86000    294.73487    93093.952    4631.5931     0.942689   -805.86445    2487.8144    4610.3831    5196.1564    4088.2398   -1567.5585     19.65961   -287.70687    294.73487 
   87000        87000     288.3221    93093.952    4841.9545     0.942689   -859.99365    2362.0222    4832.8775     4414.688    5278.2979   -2506.8058   -26.704399    7.1230316     288.3221 
   88000        88000    293.74698    93093.952    4990.9086     0.942689   -753.26834    2529.3709    4890.9973    4811.9244    5269.8042   -1868.9441   -380.27195    366.41701    293.74698 
   89000        89000    291.51917    93093.952    5267.6877     0.942689   -770.93502    2486.8082    4367.8217    5839.0307    5596.2107   -1559.3333    -257.1398    398.59242    291.51917 
   90000        90000    293.29842    93093.952    4393.0981     0.942689   -780.40662    2497.2199    4168.7413    3648.8507    5361.7023   -1887.0616   -365.88321   -284.28068    293.29842 
   91000        91000     293.1016    93093.952    4367.3991     0.942689   -803.11094    2472.3161    3873.4511    4689.5433     4539.203   -2899.7318   -231.16247   -493.88111     293.1016 
   92000        92000    298.22575    93093.952    4953.3531     0.942689   -809.59225    2523.0975     4530.081    5270.9339    5059.0445   -1915.0407    27.607912    -423.4346    298.22575 
   93000        93000    297.37934    93093.952    5161.2086     0.942689   -747.05598     2576.175    4798.3488    4989.7175    5695.5597   -1433.7002   -696.03438   -303.17798    297.37934 
   94000        94000    291.08424    93093.952    4399.2193     0.942689   -811.95435    2440.9286     4018.787    5155.0474    4023.8237   -1403.9415   -1007.0266    751.84294    291.08424 
   95000        95000    296.71988    93093.952    5048.5988     0.942689   -837.24934    2478.6122    4704.0499    5447.3796    4994.3668   -1443.7336    10.280169    631.18566    296.71988 
   96000        96000    287.32568    93093.952    4874.2221     0.942689   -742.42967    2468.4512    5262.4191    5767.8272    3592.4201   -1136.0363    307.59945    87.232119    287.32568 
   97000        97000    290.60022    93093.952     4920.219     0.942689   -718.88299     2528.591    4680.9694    4433.9304    5645.7572   -1139.9976    14.721068   -76.067912    290.60022 
   98000        98000    287.49881    93093.952    4519.4375     0.942689   -762.15899    2450.6566    4357.6308    4896.0342    4304.6476   -1422.1685    116.03716    850.27048    287.49881 
   99000        99000    292.65171    93093.952    4645.5973     0.942689   -757.47533    2512.9242    4570.2053    4427.0989    4939.4878   -1800.5858    192.06642   -652.43814    292.65171 
  100000       100000    298.36859    93093.952    6062.9314     0.942689   -727.65224    2606.6337    5664.7079    5880.0809    6644.0054   -1019.1767    542.59482    325.37911    298.36859 
  101000       101000    282.72669    93093.952    4560.5559     0.942689   -791.07282     2368.414    3437.9168    5323.3796    4920.3712   -1455.5744    485.43691    753.25364    282.72669 
  102000       102000    301.74799    93093.952    5941.4858     0.942689   -643.56027    2728.4907    6008.5796    6316.0332    5499.8445   -1859.1199    273.54945    501.46623    301.74799 
  103000       103000    291.71773    93093.952    5219.7928     0.942689    -862.6596    2397.3027    4182.4617    6426.6054    5050.3114   -1388.9302   -26.067207    384.06508    291.71773 
  104000       104000    291.87737    93093.952    5199.0456     0.942689   -663.61923     2598.127    4913.6354    5250.5293    5432.9721   -978.28108    185.92638   -13.563423    291.87737 
  105000       105000    297.79092    93093.952    5529.4995     0.942689   -768.04545     2559.785    5597.6615    6020.5069    4970.3303   -471.23386    681.33737   -231.18646    297.79092 
  106000       106000    290.58645    93093.952    5626.8239     0.942689   -726.77512     2520.545    6175.3224     5364.135    5341.0144   -438.79976   -178.76721    327.14014    290.58645 
  107000       107000    300.60447    93093.952    5078.0532     0.942689    -753.5899    2605.6821    5494.0648    4811.1981    4928.8968   -763.34233    332.40694   -179.90372    300.60447 
  108000       108000    290.16864    93093.952    6230.6565     0.942689   -789.61578    2453.0352    5178.1515    6415.4879    7098.3303   -858.77836   -778.91767   -357.05969    290.16864 
  109000       109000    291.75864    93093.952    5516.0822     0.942689   -780.74985    2479.6695    5293.9249    6378.4449     4875.877   -273.81989    394.65403   -172.22724    291.75864 
  110000       110000    292.44922    93093.952    6503.4449     0.942689   -741.81189    2526.3248    6497.2058    6604.7356    6408.3934   -494.03101   -307.26774    139.25077    292.44922 
  111000       111000    286.80978    93093.952    5915.3804     0.942689   -838.84034    2366.2753    6297.8515    5018.1617    6430.1279   -1059.5258    728.88476    678.41777    286.80978 
  112000       112000    299.74751    93093.952    5156.2089     0.942689   -869.64311    2480.0524    4616.7767    5194.5741     5657.276   -507.35355    370.92829   -509.52083    299.74751 
  113000       113000    293.87136    93093.952    5271.3512     0.942689    -758.5486    2525.4806    5124.0528    5712.8418     4977.159   -642.79301    306.16996   -20.146053    293.87136 
  114000       114000    287.59908    93093.952    4878.5744     0.942689   -835.11827    2378.8178    3942.4702    5396.9389    5296.3141   -1257.6071    373.65654   -441.48269    287.59908 
  115000       115000    297.30055    93093.952    4366.5871     0.942689   -797.83259    2524.5179    4402.6105     4407.648    4289.5029   -1117.3111   -225.92611   -551.44765    297.30055 
  116000       116000    285.12826    93093.952    5259.2305     0.942689   -852.37163    2333.9529    4989.6084    5387.7123    5400.3708   -581.74228   -862.24715    277.51901    285.12826 
  117000       117000    293.30212    93093.952    4357.5612     0.942689   -834.36513    2443.3027    4627.4431    5307.1061    3138.1346     -926.545    522.90573     538.3709    293.30212 
  118000       118000    296.13777    93093.952    5425.0271     0.942689   -847.77727    2461.5791    4563.2589    5236.2003    6475.6221   -925.53046    92.033755    113.81084    296.13777 
  119000       119000    292.92444    93093.952    4941.4921     0.942689   -891.29119    2382.1561    5324.9013    4421.4944    5078.0807    -1169.188    226.24618   -241.59715    292.92444 
  120000       120000    291.58636    93093.952    4597.0448     0.942689    -755.9018    2502.5924    4430.6284    5164.4328    4196.0733   -705.83214   -99.989437   -3.8728806    291.58636 
  121000       121000    296.31198    93093.952    5525.5736     0.942689    -801.7778    2509.5255    5573.7983     6521.876    4481.0465   -1590.1757    335.02968    1096.3136    296.31198 
  122000       122000    298.17725    93093.952    5001.0223     0.942689   -813.29881     2518.849    5182.0057    4909.0858    4911.9756   -834.08988   -471.91973   -487.69263    298.17725 
  123000       123000    293.64605    93093.952     5296.531     0.942689   -896.39434    2385.1169    5658.1821    5345.2921    4886.1189   -1648.3439   -41.636578   -72.798331    293.64605 
  124000       124000    290.35164    93093.952    4696.5963     0.942689   -800.67336    2444.0227    3918.7198    4445.4969    5725.5722    -895.7807    753.02574   -218.88782    290.35164 
  125000       125000    295.58273    93093.952    4704.8261     0.942689   -801.54198    2501.6119    4395.7779    5090.7396    4627.9608   -746.62125     800.6821    97.260942    295.58273 
  126000       126000    292.24418    93093.952    4947.6095     0.942689   -840.07697    2425.7684    5164.4943    5239.1918    4439.1423   -799.14908   -14.347148   -97.834642    292.24418 
  127000       127000    288.07724    93093.952     5560.954     0.942689   -779.56711    2439.7124    4194.0451    6331.0715    6157.7453   -1388.1926    226.09169    116.89774    288.07724 
  128000       128000    295.69379    93093.952    5282.7613     0.942689   -863.27034    2441.1246    4849.1413    5483.2701    5515.8724   -958.88413    117.31636    -260.6351    295.69379 
  129000       129000    295.43939    93093.952    5365.9599     0.942689   -794.71677    2506.8352    5010.2528    5650.1126    5437.5143   -1147.9623    695.49204    100.17796    295.43939 
  130000       130000    296.97064    93093.952    4766.0509     0.942689   -886.29726    2432.3666     3717.172    4438.8584    6142.1222   -1771.2737    33.360819    398.76803    296.97064 
  131000       131000    289.25337    93093.952     4137.242     0.942689   -879.82118    2352.6017    4348.3474     3454.048    4609.3306   -933.73783    869.25785   -296.69118    289.25337 
  132000       132000    289.92751    93093.952    4680.4095     0.942689   -882.47155    2357.4849     4146.934    4602.4063     5291.888   -2272.5071   -92.642337    66.361515    289.92751 
  133000       133000    299.88282    93093.952    5567.7314     0.942689   -777.53717    2573.6704    5841.7195    5766.8308    5094.6439   -1328.5915   -839.78226   -109.36212    299.88282 
  134000       134000    292.97078    93093.952    5204.8332     0.942689   -937.15589    2336.8092    4170.8615    6010.2511     5433.387   -1398.4064    481.09122   -406.50712    292.97078 
  135000       135000    293.09015    93093.952    5024.2915     0.942689   -907.91584    2367.3832    3825.1166    5564.0089    5683.7489   -1636.7527    407.92581   -536.28455    293.09015 
  136000       136000     296.3139    93093.952    5075.1516     0.942689   -818.61339    2492.7114    5062.4155    5528.3541    4634.6851   -200.02089    613.84079    -600.4747     296.3139 
  137000       137000    287.76753    93093.952    5241.1483     0.942689   -856.94659    2358.8719    4524.0107    5743.5838    5455.8504   -1465.0717    415.62399    30.749039    287.76753 
  138000       138000    301.70779    93093.952    5022.9268     0.942689   -789.23512    2582.3666    4374.4216    5499.3964    5194.9625   -390.04372   -141.16621     -647.438    301.70779 
  139000       139000    288.46813    93093.952    5100.7849     0.942689   -841.14559    2382.5022     4866.159    4893.0415    5543.1541   -1259.3989    689.94624   -212.26487    288.46813 
  140000       140000    290.69951    93093.952    4241.8173     0.942689    -896.7289    2351.8546    3110.4655    5080.5955    4534.3908   -1448.2133   -144.93991   -474.40306    290.69951 
  141000       141000    295.71433    93093.952    5234.7655     0.942689   -760.31719    2544.3072     4953.039    5332.6648    5418.5926   -1568.1668    2.4953807    217.75927    295.71433 
  142000       142000    289.91473    93093.952    5068.5429     0.942689   -818.53771    2421.2759     3887.771    5121.1434    6196.7144   -579.49783    887.56111   -248.02017    289.91473 
  143000       143000    298.21088    93093.952    5349.9398     0.942689   -902.17173    2430.3518    3868.5569    5937.9726    6243.2899   -1628.6642   -212.10847    -328.5488    298.21088 
  144000       144000    294.55601    93093.952    5535.2407     0.942689   -788.42116     2503.259    5324.1035    5504.4612    5777.1572   -1569.2915   -429.31587    207.47685    294.55601 
  145000       145000    291.01884    93093.952     4615.111     0.942689   -794.19825    2457.9538    3860.9379    4735.3966    5248.9985   -1120.9836   -151.26177    294.64446    291.01884 
  146000       146000    294.96259    93093.952     5157.093     0.942689   -819.27403    2476.9497    4740.8157    5444.2581    5286.2052    -2143.764   -540.12939   -1607.6211    294.96259 
  147000       147000    293.91881    93093.952    5294.5598     0.942689   -815.07699    2469.4824    5405.8293    4678.2513    5799.5988   -1862.8714    226.66619    217.88551    293.91881 
  148000       148000    290.22851    93093.952    4016.6399     0.942689   -832.19619    2411.1239    4187.0271    3791.6878    4071.2048   -697.77101    849.39285   -6.5728338    290.22851 
  149000       149000    292.75115    93093.952    4641.6617     0.942689   -824.11666    2447.3941    3815.7941    4941.8023    5167.3886   -2011.1296    706.78548    84.291739    292.75115 
  150000       150000    294.62566    93093.952    4966.3951     0.942689   -796.07734    2496.3811    4526.3569    5382.6409    4990.1874   -1072.9837   -659.04912   -58.973524    294.62566 
  151000       151000     290.6682    93093.952    4932.7136     0.942689   -834.48204    2413.7516    3721.2617    5307.3357    5769.5435   -1701.3777    271.89151   -16.360311     290.6682 
  152000       152000    296.33829    93093.952    4534.9236     0.942689   -825.98406    2485.6132    4160.3888    5148.2213    4296.1607   -804.51621   -131.44972   -30.314747    296.33829 
  153000       153000    294.97956    93093.952    5616.9345     0.942689   -731.24793    2565.1654    5011.1878    5719.2226    6120.3933   -1080.0174    3.6793973    373.38629    294.97956 
  154000       154000    291.08196    93093.952    4939.3733     0.942689   -791.46057    2461.3969    4201.8787    5569.9639    5046.2773   -1791.5254   -340.16948   -135.01741    291.08196 
  155000       155000    293.77902    93093.952    5535.8156     0.942689   -733.06708    2549.9302    5009.9748    6231.2744    5366.1977   -1220.0166   -262.43001   -1143.6434    293.77902 
  156000       156000    293.90384    93093.952    5339.7426     0.942689   -815.50625    2468.8859    4613.6071    5405.4727    6000.1479   -1174.2697    48.151443   -911.60224    293.90384 
  157000       157000    298.66691    93093.952    5174.4657     0.942689   -775.02206    2562.5976    4621.7083    4857.4873    6044.2014   -1364.7954    1086.8288    277.88273    298.66691 
  158000       158000    292.59048    93093.952    4638.2779     0.942689   -767.84434    2501.8709    4640.4702    5290.6828    3983.6806   -1208.0915   -636.47805    156.41242    292.59048 
  159000       159000    287.18611    93093.952    5730.2201     0.942689   -808.57874    2400.7424    5770.6455    5672.6619    5747.3528   -1332.1713   -126.08793   -6.0409916    287.18611 
  160000       160000      296.335    93093.952    4847.1576     0.942689   -814.80247     2496.758    4742.7862    4975.2037    4823.4828    -1470.067   -717.75464   -680.49392      296.335 
  161000       161000    291.12337    93093.952    5531.0129     0.942689   -776.52235    2476.7979    4711.8505    6190.1597    5691.0284   -764.93901    240.55583   -87.455674    291.12337 
  162000       162000     295.9375    93093.952    4717.1509     0.942689    -813.9165    2493.2019    4300.3024    4954.9826    4896.1678   -1592.8381   -631.94153    543.56787     295.9375 
  163000       163000    297.10285    93093.952    5965.3442     0.942689   -804.13442    2516.0068    6591.2052    5167.9611    6136.8663   -953.80539   -521.24541   -184.02463    297.10285 
  164000       164000    287.76635    93093.952    4978.5237     0.942689   -767.32745    2448.4779    3368.9596    6701.6866    4864.9249   -1552.8595   -692.39695    468.73887    287.76635 
  165000       165000    294.57743    93093.952    4444.0401     0.942689   -836.49525    2455.4242    4675.8104    4381.7074    4274.6025   -1269.4875   -253.60817    -537.0242    294.57743 
  166000       166000    290.90236    93093.952    3933.0957     0.942689   -711.32302    2539.5274    2299.9777     4978.068    4521.2415   -1001.8472    740.91377    80.040817    290.90236 
  167000       167000    294.34628    93093.952     4825.036     0.942689   -928.89969    2360.4368     4435.041    4995.2643    5044.8027   -1524.7361    364.24379   -606.31188    294.34628 
  168000       168000     292.8387    93093.952    5621.7668     0.942689   -799.21644    2473.2727    4568.1982    5641.8063    6655.2959   -602.95317   -699.65751   -91.366355     292.8387 
  169000       169000    294.87577    93093.952    4677.4476     0.942689   -909.50207    2385.7515    3332.7819     6533.974    4165.5867   -1654.5555     -289.468   -626.23658    294.87577 
  170000       170000    292.35102    93093.952     5761.204     0.942689   -817.43713    2449.6021    5525.7841    5530.6914    6227.1364   -914.52741   -492.06065     47.91066    292.35102 
  171000       171000    292.87782    93093.952    4232.6149     0.942689   -827.14913    2445.7771    2973.6153    5562.2005    4162.0287    -264.3628    473.19756   -295.30322    292.87782 
  172000       172000    296.45463    93093.952    5169.6542     0.942689   -767.07771    2545.8196    5202.6392    4477.5035      5828.82    -1617.277   -154.88958    1351.1758    296.45463 
  173000       173000     288.6811    93093.952    4973.7258     0.942689   -858.11942    2367.9083    5312.2384    4696.9952    4911.9438   -1499.6332   -496.78393    613.92266     288.6811 
  174000       174000    302.98305    93093.952    5362.0898     0.942689   -858.96879     2526.884    5340.3287    5686.2255    5059.7151   -1004.4271   -107.80762    867.26162    302.98305 
  175000       175000    295.71269    93093.952    5453.8811     0.942689   -883.36709     2421.239    5501.3976    5249.3173    5610.9282   -893.16998   -153.35759    33.325383    295.71269 
  176000       176000    293.38915    93093.952    4688.5796     0.942689   -872.02962    2406.6108    5247.1896    4902.5727    3915.9765   -893.39007   -942.08744    -41.79943    293.38915 
  177000       177000    287.49786    93093.952    4659.8848     0.942689   -781.02463    2431.7803    3765.1162    5835.1053    4379.4328   -80.073052   -213.30409    944.61881    287.49786 
  178000       178000    303.79579    93093.952    4413.9147     0.942689   -834.45354    2560.4817    3758.7993     4635.491    4847.4537   -749.49406   -362.36521    440.90048    303.79579 
  179000       179000    285.68797    93093.952    4786.6386     0.942689   -871.25694    2321.3224    3956.5641    5424.4294    4978.9222   -1427.5808    44.917266    2.2352421    285.68797 
  180000       180000    295.45006    93093.952    5099.7786     0.942689   -783.16328     2518.508    4290.3993    5873.1501    5135.7863   -763.82048    -625.7807    780.48029    295.45006 
  181000       181000    294.19879    93093.952    5153.2646     0.942689    -855.8069    2431.8814    4463.3911     5156.294    5840.1086   -1164.9336    63.467293   -38.141345    294.19879 
  182000       182000    294.01756    93093.952    5313.3412     0.942689    -887.0277    2398.6353    4754.3204    5399.0386    5786.6646   -1510.6048   -436.73159     659.0523    294.01756 
  183000       183000    301.86642    93093.952    4668.7958     0.942689   -898.94488    2474.4295    4171.1213    4764.9929    5070.2732   -1773.6003    47.457267    599.69405    301.86642 
  184000       184000    298.39087    93093.952    5421.7428     0.942689   -881.15852    2453.3764    5985.5563    5876.2167    4403.4555   -1574.5453   -135.99829    259.96391    298.39087 
  185000       185000    296.46743    93093.952    5325.4699     0.942689    -803.9748    2509.0656    5001.8162    5334.2947    5640.2987   -91.668788   -193.88887    40.512379    296.46743 
  186000       186000    282.48975    93093.952    5118.8051     0.942689   -861.62997     2295.209    4837.8613    5725.6629    4792.8912   -589.50603    784.93826   -8.8937346    282.48975 
  187000       187000    292.76785    93093.952    5270.5884     0.942689   -780.23135     2491.466    4682.4938    6090.6369    5038.6345   -748.65616   -649.56034    615.54157    292.76785 
  188000       188000    297.02162    93093.952    4375.6854     0.942689   -906.01479    2413.2187    3663.4607    4953.3879    4510.2076   -1501.2134    365.75168   -517.07478    297.02162 
  189000       189000    296.60557    93093.952    4468.4098     0.942689   -839.06344    2475.5207    3377.1485    5601.5391    4426.5419   -1505.0917    351.37328   -708.30683    296.60557 
  190000       190000    287.67178    93093.952    4495.0302     0.942689   -964.33493    2250.4135     4319.802    5136.9483    4028.3402   -1013.9571     -91.9534   -12.152929    287.67178 
  191000       191000    297.45927    93093.952    4437.4732     0.942689   -857.92235    2466.2019    3666.3979    5438.6797    4207.3419   -1749.0212   -784.92243     445.4385    297.45927 
  192000       192000    290.83897    93093.952     4588.146     0.942689   -918.73488    2331.4072    3180.5833    5550.2433    5033.6114   -1683.0858    657.02288    580.64175    290.83897 
  193000       193000     295.1684    93093.952    6028.0307     0.942689   -906.68413    2391.8395    5870.7945    6105.8052    6107.4924   -1137.9788    -389.9639    96.700722     295.1684 
  194000       194000    296.43149    93093.952    5382.4408     0.942689   -868.75318    2443.8856    4432.2914    6430.4161    5284.6148   -1639.0022   -108.66984    289.88283    296.43149 
  195000       195000     293.3606    93093.952    5411.7119     0.942689   -877.27062    2401.0508    4795.6035    5353.6756    6085.8565   -1138.3364    304.41119    249.49385     293.3606 
  196000       196000    297.39511    93093.952    4604.5548     0.942689   -844.22906    2479.1782    3729.3513    4622.2705    5462.0426   -1499.2864   -33.119587    526.23574    297.39511 
  197000       197000    287.76934    93093.952      5565.77     0.942689   -897.39863    2318.4401    4829.4793    5831.1053    6036.7254   -1451.3977   -36.674167     220.4154    287.76934 
  198000       198000     292.6685    93093.952    4786.1594     0.942689   -823.54958    2447.0376    4740.5684    4994.8782    4623.0316   -1119.4612    35.238888    441.19338     292.6685 
  199000       199000    296.23503    93093.952    5093.4232     0.942689   -842.40312    2468.0402    4688.6708     5182.194    5409.4049   -955.98866   -144.90851   -481.37034    296.23503 
  200000       200000    287.09782    93093.952    5005.4247     0.942689   -867.75821    2340.5762    4226.4537    5593.9891    5195.8314   -785.45579   -319.06409   -213.87067    287.09782 
  201000       201000    293.12421    93093.952    4410.2897     0.942689   -801.08385    2474.5959    2937.7466    5256.2989    5036.8235   -1769.7152   -476.38002    147.10361    293.12421 
  202000       202000    295.94107    93093.952    4109.6182     0.942689   -861.79216    2445.3662    3671.8911    4918.6155    3738.3481   -1527.3689   -133.89185   -449.65552    295.94107 
  203000       203000    297.47058    93093.952    5448.1587     0.942689   -842.61913    2481.6315    5340.4129    5425.3494    5578.7138   -1971.2063   -206.31991   -616.25296    297.47058 
  204000       204000    290.12009    93093.952    5021.6128     0.942689   -872.18305    2369.9255     3844.174    5522.0976    5698.5667   -1674.3655    312.18748    599.05609    290.12009 
  205000       205000    298.98587    93093.952    4668.3338     0.942689   -781.05541    2560.1287    4505.4073    4822.2796    4677.3143   -1908.0755   -549.96423    295.93183    298.98587 
  206000       206000     291.4908    93093.952    5796.6982     0.942689   -865.34745    2392.0789    4737.1538    6719.0907    5933.8501    -1750.656    668.28883    408.44718     291.4908 
  207000       207000    292.46391    93093.952    4870.5704     0.942689   -757.22812    2511.0727    3867.8211    5541.0179    5202.8723   -731.30314    580.21522   -764.10205    292.46391 
  208000       208000    287.82108    93093.952    4353.8086     0.942689   -817.81484    2398.6022    4230.6942     5272.962    3557.7697   -489.39875   -628.50126   -62.985866    287.82108 
  209000       209000    295.57864    93093.952    3647.0448     0.942689   -766.07919    2537.0289    2654.3938    4326.3269    3960.4136   -921.09197   -740.29743   -464.12646    295.57864 
  210000       210000    293.06535    93093.952    5215.1114     0.942689   -822.52955    2452.4924    4218.5044    5387.3871    6039.4426   -1630.9742   -1069.6385      147.192    293.06535 
  211000       211000     287.5361    93093.952    5220.3166     0.942689   -810.05475    2403.1776    4492.2997     5767.185    5401.4651   -1745.2258   -450.77544   -244.96033     287.5361 
  212000       212000    294.71395    93093.952    4302.9706     0.942689   -812.03835    2481.4068    3210.4796    5253.9027    4444.5296   -2316.6615    615.87366    530.89498    294.71395 
  213000       213000    292.32233    93093.952    5013.6373     0.942689   -778.14768    2488.5709    4202.0558    5672.1957    5166.6603   -962.84732   -628.84561   -216.87305    292.32233 
  214000       214000    290.86954    93093.952    4420.7202     0.942689   -770.92131    2479.5624    3124.0716     5256.845    4881.2439   -192.58228   -817.43136    274.14203    290.86954 
  215000       215000    291.09414    93093.952    5128.9006     0.942689    -891.3854    2361.6081    4231.8398    5102.4917    6052.3702   -887.70414     124.2041   -459.43703    291.09414 
  216000       216000    295.23477    93093.952     4937.025     0.942689   -792.44598    2506.8194    3881.2634    5322.8255    5606.9861   -763.89094    -457.0295   -203.22517    295.23477 
  217000       217000    295.51143    93093.952    5124.4461     0.942689   -840.41186    2461.9452    4569.4523    5104.3206    5699.5656   -1578.1166   -399.95747    519.81833    295.51143 
  218000       218000    290.61916    93093.952    5375.1399     0.942689   -755.45453    2492.2311    5950.3221    6041.3537    4133.7438   -1384.9739   -394.76539    82.733268    290.61916 
  219000       219000    290.51952    93093.952    4924.6034     0.942689   -827.57054    2419.0017     4597.354    5341.0284    4835.4277   -1060.2533    21.454249    712.65387    290.51952 
  220000       220000    304.65963    93093.952    5558.3186     0.942689   -757.53647    2647.0523    5569.5103    5854.9699    5250.4757   -1352.1682   -74.677234     413.7257    304.65963 
  221000       221000    291.55693    93093.952    5085.8484     0.942689   -809.17588    2448.9894    4747.0541    5470.4273    5040.0637   -1320.9863   -123.74128    509.13363    291.55693 
  222000       222000     296.8177    93093.952    5305.6744     0.942689    -673.2783    2643.6763    4485.9941    5761.4604    5669.5687   -1611.0965    141.25519     309.6703     296.8177 
  223000       223000     291.0754    93093.952    4368.7898     0.942689   -819.32637    2433.4578    3434.9781    4895.6576    4775.7337   -911.30992   -6.8781543   -407.75351     291.0754 
  224000       224000    289.86593    93093.952    4192.2392     0.942689   -808.63927    2430.6289    3120.6393    4687.1854     4768.893   -728.73165   -36.760155    191.51281    289.86593 
  225000       225000    296.38214    93093.952    5505.8961     0.942689   -749.46402    2562.6232    4930.7628    5580.4231    6006.5025   -1365.1185    145.84676    211.75325    296.38214 
  226000       226000    290.28167    93093.952    4647.4601     0.942689   -771.83368    2472.0805    3677.7423    5180.3574    5084.2805   -1682.5555    97.333115   -763.85004    290.28167 
  227000       227000    296.87058    93093.952    5587.1941     0.942689   -864.48872    2453.0569    5459.1347    5306.3903    5996.0573   -1559.1085     617.7277    139.20152    296.87058 
  228000       228000    295.15363    93093.952    5352.5116     0.942689   -722.14408    2576.2145    5434.2053    5435.3796      5187.95   -1374.4619   -400.63616    -181.9879    295.15363 
  229000       229000    287.28142    93093.952    5541.8522     0.942689   -833.04506    2377.3411    5398.7947    6159.1903    5067.5717   -1775.7083   -378.93165    4.9671839    287.28142 
  230000       230000    296.78826    93093.952    5172.9906     0.942689   -750.78815    2565.8375    4690.9681     4814.992    6013.0116   -1461.2029    121.73583    1065.1685    296.78826 
  231000       231000    292.34278    93093.952    5403.2374     0.942689   -906.29373    2360.6534    5189.9406    4847.1123    6172.6594   -1522.3778    475.18559    590.46545    292.34278 
  232000       232000    294.82579    93093.952    5320.3722     0.942689   -813.41205    2481.2829    5253.4039    5440.0428    5267.6698   -1596.2145    606.16308   -266.98138    294.82579 
  233000       233000    292.90685    93093.952    4997.3759     0.942689   -713.80201    2559.4487    5746.8116    4983.4761    4261.8399   -1642.1263    409.85335   -102.11997    292.90685 
  234000       234000    292.09895    93093.952    4263.6108     0.942689   -886.99094    2377.2314      3223.69      5273.38    4293.7623   -1166.0437   -49.867138    317.09868    292.09895 
  235000       235000    297.71469    93093.952    4634.7713     0.942689   -727.26455     2599.714      4924.15    4191.1848     4788.979   -1997.4044    254.15078   -145.73551    297.71469 
  236000       236000    289.65687    93093.952    4252.4445     0.942689   -776.35417    2460.5779    3797.3842    4636.1556    4323.7937   -1705.2829    147.87905   -414.89887    289.65687 
  237000       237000    295.66722    93093.952    4796.5381     0.942689     -854.133     2449.965    4618.2039    5307.6351    4463.7753   -1309.7496    269.95228   -363.57778    295.66722 
  238000       238000    293.85553    93093.952    4566.8113     0.942689   -779.60805    2504.2443    4389.7818    4092.4201    5218.2321   -1104.4668    315.95177    677.02755    293.85553 
  239000       239000    296.31284    93093.952    5473.0134     0.942689   -821.46914    2489.8437    4222.1997    5417.9335     6778.907   -1702.7548   -718.07229   -70.616718    296.31284 
  240000       240000    288.69018    93093.952    4448.7273     0.942689   -714.78357    2511.3456    3117.3422    5244.7182    4984.1215   -1555.6139   -852.48523    364.68651    288.69018 
  241000       241000    294.71438    93093.952    5283.7143     0.942689   -751.35683    2542.0931    4800.5549    5398.4763    5652.1119   -1618.5216   -19.161114    52.146357    294.71438 
  242000       242000     294.2986    93093.952     4331.336     0.942689   -866.92407    2421.8795    3414.1891    5053.8652    4525.9537   -2172.7043    327.58078   -152.43095     294.2986 
  243000       243000    300.42268    93093.952    5598.9027     0.942689   -810.76798    2546.4726     4373.859    6052.6265    6370.2226    -1803.518    31.224869    226.70887    300.42268 
  244000       244000    293.18502    93093.952    5136.4202     0.942689    -814.6536    2461.7056    4815.6002    5614.6877    4978.9729   -1322.7329    136.96501   -162.43197    293.18502 
  245000       245000    285.06088    93093.952    5008.2257     0.942689   -693.37781    2492.1938    3830.8425    5367.6854    5826.1492   -1241.2213   -90.578902    159.29336    285.06088 
  246000       246000    295.13232    93093.952    4784.1471     0.942689   -705.45664    2592.6638    4924.7829    4913.1575     4514.501   -1841.9103    312.60904    659.88535    295.13232 
  247000       247000    293.87773    93093.952    6288.8549     0.942689   -777.61987    2506.4804    6211.9013    6382.9894    6271.6741   -681.46395    478.34367    288.84618    293.87773 
  248000       248000     293.2896    93093.952    5036.3207     0.942689    -711.1889    2566.3391    5239.0393      4144.92    5725.0027   -1037.2251   -221.42388    234.17824     293.2896 
  249000       249000    292.08093    93093.952    4851.2683     0.942689   -790.79425    2473.2268    4479.9842    4930.4866    5143.3341   -1773.2147    105.17112   -294.49576    292.08093 
  250000       250000    297.47238    93093.952    4558.7608     0.942689   -871.41184    2452.8589    3270.4384    5322.8282    5083.0159   -1926.5721   -254.19872    341.06192    297.47238 
  251000       251000    294.44062    93093.952    5429.5888     0.942689   -705.52998    2584.8607    4498.4053    6307.9205    5482.4406   -1070.5762   -99.507982    60.146962    294.44062 
  252000       252000    294.98999    93093.952    4714.7616     0.942689   -835.12594    2461.4039    4351.0708    5213.7858    4579.4283   -767.01739   -355.49414    267.56976    294.98999 
  253000       253000    297.34671    93093.952    5707.1578     0.942689   -775.32088    2547.5455    5205.8489    6254.2029    5661.4215   -1069.9924    408.44289   -662.21608    297.34671 
  254000       254000    293.54178    93093.952    5411.6396     0.942689   -776.29935    2504.0467    5297.8107    5581.7055    5355.4026   -1185.0912   -54.943935    148.42345    293.54178 
  255000       255000    292.87093    93093.952    4991.0134     0.942689   -703.47591    2569.3734    4555.9523    5127.7246    5289.3635   -1843.9755    1.6197016   -267.92043    292.87093 
  256000       256000    289.90881    93093.952    5449.0905     0.942689   -830.11863    2409.6288    5349.7904    5652.7502    5344.7309   -1477.0365    910.18544    160.95026    289.90881 
  257000       257000    302.60202    93093.952    5282.9634     0.942689   -792.25586    2589.3389    4645.1748    6025.9647    5177.7507   -1052.2664    424.24554    -666.0459    302.60202 
  258000       258000    294.28225    93093.952    5590.6202     0.942689   -776.19191     2512.429     4841.256    6259.5091    5671.0956   -557.21008   -586.22299    761.30586    294.28225 
  259000       259000      294.419    93093.952    5134.1615     0.942689   -777.07791    2513.0711    4777.2203    5152.2231     5473.041   -1292.2806   -282.88783    591.39164      294.419 
  260000       260000    296.92227    93093.952    5351.2212     0.942689   -772.83233     2545.291    5075.3749     5900.046    5078.2428   -935.25273    109.74708   -628.42787    296.92227 
  261000       261000    291.08596    93093.952    5128.1649     0.942689   -781.27186    2471.6303    4890.5774    5772.5013     4721.416   -531.06588    229.20853    323.35144    291.08596 
  262000       262000    290.54297    93093.952    5067.4779     0.942689   -840.79909    2406.0351    4655.0841    5491.3592    5055.9905   -783.00543   -799.15527    302.24792    290.54297 
  263000       263000    288.31752    93093.952    5572.6537     0.942689    -726.6369    2495.3278    5567.3521    6151.8928    4998.7161   -854.34865   -265.21209   -342.99277    288.31752 
  264000       264000    290.58547    93093.952     4631.926     0.942689    -765.0044    2482.3048    4020.5344    5586.1729    4289.0708   -527.12914   -402.40224   -481.16316    290.58547 
  265000       265000    298.20002    93093.952    4847.8976     0.942689   -763.06927     2569.333    4569.3752    5663.3968    4310.9208   -756.70884    90.574826    135.14766    298.20002 
  266000       266000    290.12354    93093.952    5065.0597     0.942689   -791.02317    2451.1239    4992.4815    5760.1062    4442.5913   -947.99287   -297.40087    332.62691    290.12354 
  267000       267000    295.95217    93093.952    5609.7418     0.942689   -870.89648    2436.3859    3963.1991    6393.9651    6472.0613    -740.4821   -8.7756065    1464.3907    295.95217 
  268000       268000    294.82922    93093.952    4389.6493     0.942689   -807.53901    2487.1943    3820.1148    4616.8685    4731.9648   -1551.1035    195.82256   -208.66017    294.82922 
  269000       269000    294.99828    93093.952    3903.3948     0.942689   -798.52555    2498.0971    2441.9236    4895.9546    4372.3062   -1328.6468    49.506043   -200.05104    294.99828 
  270000       270000    293.70093    93093.952    5769.3662     0.942689    -790.7686     2491.356    5339.9286    5734.8483    6233.3218    -972.0865    194.14373   -390.89089    293.70093 
  271000       271000    294.28945    93093.952    4490.6788     0.942689   -824.39923    2464.3021    3621.0305    4628.9101    5222.0958    -2246.865   -644.67569   -489.22255    294.28945 
  272000       272000    291.48787    93093.952    3607.7969     0.942689   -793.64888    2463.7447    2145.4005    4671.1972     4006.793   -1609.2645    116.55335   -164.17558    291.48787 
  273000       273000    294.66643    93093.952    5820.0652     0.942689   -792.32254    2500.5916    5889.5656    5758.4125    5812.2176   -1143.7799   -86.541411   -245.79101    294.66643 
  274000       274000     294.0806    93093.952    5050.8552     0.942689   -845.09034     2441.277    4570.7603    5313.0815    5268.7239   -371.65182      121.638   -111.73481     294.0806 
  275000       275000     297.3098    93093.952    4981.9469     0.942689   -771.29525    2551.1587    4505.2771    5585.5697    4854.9938   -543.61452    250.40737   -325.43856     297.3098 
  276000       276000    281.15371    93093.952    5109.5815     0.942689   -807.61887    2334.2898    4584.1351    6041.0091    4703.6004   -1150.7063   -530.67133   -240.64631    281.15371 
  277000       277000    292.69459    93093.952    4726.0072     0.942689    -743.2888    2527.5898    3262.8565    5389.4765    5525.6886   -1462.6121   -686.84501    -1596.519    292.69459 
  278000       278000    296.57662    93093.952    4247.7602     0.942689   -835.75498    2478.5056    4145.1296    4529.8755    4068.2756   -1219.4906    282.94474    56.002649    296.57662 
  279000       279000    298.76278    93093.952    4299.4842     0.942689   -840.21795    2498.4731     1700.195    5182.2628    6015.9948   -1347.6104   -187.33618   -414.52784    298.76278 
  280000       280000    295.09109    93093.952    5129.3328     0.942689   -840.52647    2457.1332    4470.0704    6157.6104    4760.3177   -945.87235   -849.75601    275.70214    295.09109 
  281000       281000    288.73676    93093.952    4638.1049     0.942689   -761.59144    2465.0582    4132.2756    4677.7426    5104.2964   -1110.1489   -59.493245   -847.25172    288.73676 
  282000       282000     290.8674    93093.952    5175.0246     0.942689   -819.39537    2431.0644    3320.3805    7357.7571    4846.9364   -954.97405   -322.03148    -48.49806     290.8674 
  283000       283000    288.91723    93093.952    5059.3457     0.942689   -823.46326    2405.2032    4765.3557    4700.6094    5712.0719   -1011.0056    71.656429   -627.66218    288.91723 
  284000       284000    293.04456    93093.952    4692.2697     0.942689   -699.63929    2575.1503    4350.5702    5082.7834    4643.4556   -1349.5671   -97.814368   -227.84087    293.04456 
  285000       285000    295.53234    93093.952    4656.7677     0.942689   -820.38582    2482.2049    3257.2329    5286.2758    5426.7944   -1429.8778    712.16612    198.87207    295.53234 
  286000       286000    291.86513    93093.952    4255.9235     0.942689   -840.22143     2421.388    3427.4606    4822.9597    4517.3503   -1424.5908   -325.49517    51.921108    291.86513 
  287000       287000    297.28097    93093.952    5517.1929     0.942689   -788.97805    2533.1536     4554.122    5834.8217    6162.6351   -782.37877   -413.91365   -175.10676    297.28097 
  288000       288000    287.23847    93093.952    5768.3935     0.942689   -773.10612    2436.8001    4574.1463    6966.3826    5764.6516   -1073.4654    422.79459   -366.08382    287.23847 
  289000       289000    297.71009    93093.952    5210.9002     0.942689   -880.10162    2446.8256    4959.2506    5291.7867    5381.6632   -1171.8321    -360.2604   -324.22012    297.71009 
  290000       290000    294.71387    93093.952    5910.8349     0.942689   -731.08177    2562.3625    5177.2125    7038.1515    5517.1407     80.27191    18.830958   -560.79522    294.71387 
  291000       291000    282.94571    93093.952    3991.0706     0.942689   -772.75159    2389.1828     2850.411    4696.7707    4426.0301   -1514.2775   -260.03552    98.841734    282.94571 
  292000       292000     295.0064    93093.952     3429.557     0.942689   -735.68945    2561.0239     3586.137    3549.9851     3152.549   -1432.7795    18.295973     -441.396     295.0064 
  293000       293000     295.5544    93093.952    5254.0955     0.942689   -877.11667    2425.7205    4092.7104    5774.3408    5895.2353   -1216.8468    46.181014   -435.68163     295.5544 
  294000       294000    289.50424    93093.952    4532.6995     0.942689   -886.75706    2348.4693     3608.206    5699.4279    4290.4646   -751.55319    -227.0841    1014.9032    289.50424 
  295000       295000     303.8759    93093.952    5061.8695     0.942689   -813.85609    2581.9743    4365.2771    5558.1375    5262.1941    -1666.404    408.78726    538.40968     303.8759 
  296000       296000    286.70745    93093.952    4913.0607     0.942689   -787.35882    2416.6133    4631.7582    5074.8431    5032.5807   -1363.9157   -518.64847    83.697629    286.70745 
  297000       297000    290.13105    93093.952    4848.3434     0.942689   -866.12781    2376.1032     3785.371    5726.9698    5032.6893   -316.21211    175.42754    -285.6321    290.13105 
  298000       298000    293.05462    93093.952    5588.7565     0.942689    -756.4703    2518.4318    4646.4216     6311.631     5808.217    -641.8303   -11.143938   -247.21991    293.05462 
  299000       299000    287.16669    93093.952    4804.5817     0.942689   -866.85089    2342.2532    3749.6246    5473.5031    5190.6175   -1487.6959     478.6541    18.296207    287.16669 
  300000       300000    298.38349    93093.952    5170.3833     0.942689   -781.09109    2553.3613    4511.4131    5950.1691    5049.5676   -492.59933    176.91823   -10.975015    298.38349 
  301000       301000    293.66393    93093.952    5698.0691     0.942689   -849.81502    2431.8961    4082.6372    7000.6987    6010.8714   -718.34898   -431.09826   -131.59864    293.66393 
  302000       302000    293.92869    93093.952    4649.5741     0.942689   -843.86886    2440.8009    3639.0688    6094.6091    4215.0445   -1329.4711    365.41001   -221.45021    293.92869 
  303000       303000     294.3101    93093.952    3969.0193     0.942689   -806.12264    2482.8095    3152.2866     4814.698    3940.0733   -994.65052    56.492363   -555.97165     294.3101 
  304000       304000    290.62137    93093.952    4547.9361     0.942689   -833.18581    2414.5245    3819.3133    4872.8385    4951.6566   -2073.2701   -202.72418   -696.20618    290.62137 
  305000       305000     293.2597    93093.952    5358.6923     0.942689   -849.85894    2427.3349    5174.9246    5578.3014    5322.8507   -751.16894   -65.981414    60.321244     293.2597 
  306000       306000    292.59183    93093.952    4971.4706     0.942689   -841.82933     2427.901       4291.7    5282.7895    5339.9221   -142.55516    326.42697    439.82878    292.59183 
  307000       307000    297.92514    93093.952    5047.3078     0.942689   -880.69399    2448.6364    5202.2732    5547.1969    4392.4531   -1028.7648   -55.590174    -260.5856    297.92514 
  308000       308000     291.2835    93093.952    4384.1616     0.942689   -915.58459    2339.5251    4595.0993    4489.9203    4067.4651    -1091.693    319.59163      367.595     291.2835 
  309000       309000    294.15479    93093.952    4778.2408     0.942689   -845.68755     2441.509    4016.9103    6249.3698    4068.4422   -812.84124    291.45926    161.69953    294.15479 
  310000       310000     294.2229    93093.952    3935.1369     0.942689   -861.57829    2426.3794    3154.9959    3930.7522    4719.6627    -1715.381   -319.20012   -542.02712     294.2229 
  311000       311000    288.81544    93093.952    4866.9817     0.942689   -816.68877    2410.8402    3667.9528    5796.9877    5136.0047   -1269.9976   -620.16823    200.43308    288.81544 
  312000       312000    289.47806    93093.952    4734.2747     0.942689   -829.51325    2405.4205    4769.1119    4553.7937    4879.9186   -395.60874    506.30349    438.11311    289.47806 
  313000       313000    294.45722    93093.952      5961.33     0.942689   -870.97231    2419.6039    5737.0703    6190.4117    5956.5081   -808.43528    370.79559   -347.94963    294.45722 
  314000       314000    296.65712    93093.952    4486.1288     0.942689   -824.03948    2491.1207    3831.5539    5006.3387     4620.494   -1229.2755   -132.99905   -132.59848    296.65712 
  315000       315000     292.8434    93093.952    5464.0715     0.942689   -890.51842    2382.0232    4770.9106    5671.1018    5950.2022     -1365.89   -452.59232   -233.03848     292.8434 
  316000       316000    292.23397    93093.952     4506.949     0.942689   -844.98244    2420.7488    3829.9147    3770.1985    5920.7337   -284.08033    28.244713   -327.73302    292.23397 
  317000       317000    292.82566    93093.952    4660.4948     0.942689   -833.32153    2439.0219    4911.5943    5031.1326    4038.7576   -746.71247   -425.05665    -40.40312    292.82566 
  318000       318000    293.54964    93093.952    5291.9523     0.942689   -877.33838    2403.0956    5278.0364    5938.2158    4659.6047   -981.28304    585.97627   -467.18844    293.54964 
  319000       319000    290.36621    93093.952    4507.5819     0.942689   -793.53105    2451.3278     4277.338    4531.2515    4714.1562   -735.35878   -18.500794   -363.40672    290.36621 
  320000       320000    295.35912    93093.952    4034.6761     0.942689   -863.32621    2437.3288    2924.6598    5376.5639    3802.8046   -1545.9637   -449.13553   -620.13893    295.35912 
  321000       321000    291.74968    93093.952    5152.7737     0.942689    -839.0005    2421.3187    4642.8769    5745.8466    5069.5975   -1013.2138   -34.485275       624.01    291.74968 
  322000       322000    292.98105    93093.952    5522.1219     0.942689   -833.15682    2440.9231    5345.2972    5014.0766     6206.992   -935.76326   -72.888928    531.45388    292.98105 
  323000       323000    293.81858    93093.952     4418.494     0.942689    -943.6374     2339.802    3298.6105    5399.8439    4557.0274   -961.14245   -125.48277   -97.202168    293.81858 
  324000       324000    298.80536    93093.952    4348.3952     0.942689      -817.61    2521.5569    4470.4076    4314.7261    4260.0518   -1747.9566   -240.97051    634.45824    298.80536 
  325000       325000    291.09934    93093.952    4822.0302     0.942689   -827.98914    2425.0625    4169.4585    5047.2299    5249.4021   -1665.5578    1184.6875    256.83671    291.09934 
  326000       326000    292.53421    93093.952    4954.2993     0.942689   -809.68135     2459.405    4519.0641    5534.2859     4809.548    33.862004    695.39796    533.34017    292.53421 
  327000       327000    291.77469    93093.952    4678.5925     0.942689    -827.7806    2432.8182    3199.5261    5341.1394    5495.1121   -1691.4695    582.00157    681.53046    291.77469 
  328000       328000    294.34354    93093.952    4534.7822     0.942689    -755.4575    2533.8483      3722.47    5794.5538    4087.3227   -1509.6836   -467.37407     266.3739    294.34354 
  329000       329000     295.5253    93093.952    4967.1136     0.942689   -859.36295    2443.1491    3951.0749     5441.238     5509.028   -1141.9407   -322.19174    831.77787     295.5253 
  330000       330000    290.57689    93093.952    5245.8217     0.942689   -696.90581    2550.3075    4691.7916    5562.9304     5482.743   -1089.8023    88.465118   -70.783083    290.57689 
  331000       331000    293.27363    93093.952    5230.0013     0.942689   -790.00896    2487.3405    4830.6153    5425.7035     5433.685   -996.85959   -78.705472   -213.10649    293.27363 
  332000       332000     296.5378    93093.952    4154.0196     0.942689   -745.39588    2568.4309    3333.0532    5251.2863    3877.7193   -1463.3531    225.91607    470.25901     296.5378 
  333000       333000    292.01372    93093.952    4228.4247     0.942689   -879.37016    2383.8997    3670.5757    4989.8862    4024.8123   -733.65044    459.80466   -186.78756    292.01372 
  334000       334000    297.27717    93093.952     5060.661     0.942689   -775.81462    2546.2747    4720.2613     5157.802    5303.9199   -1560.3207   -266.28333   -673.51149    297.27717 
  335000       335000    296.32651    93093.952    5876.6586     0.942689   -800.55674    2510.9089     5639.621     6285.139    5705.2159    -1343.604    217.13206    521.92593    296.32651 
  336000       336000    291.17925    93093.952    5776.4421     0.942689   -800.07702    2453.8677    5750.4426    5970.4824    5608.4014   -237.35614    261.10169   -137.83745    291.17925 
  337000       337000    292.01165    93093.952    4666.6623     0.942689   -769.25314    2493.9937    4429.3254    5593.9345     3976.727   -1717.9662    149.21438   -810.17713    292.01165 
  338000       338000    293.82874    93093.952    5126.3139     0.942689   -753.56788     2529.985     4890.216    4544.0496    5944.6762   -804.13273   -476.22729   -198.24899    293.82874 
  339000       339000    294.55153    93093.952    4717.8968     0.942689   -789.02907    2502.6011    4281.9998    5152.1015    4719.5891   -1694.5117   -175.69448    93.757098    294.55153 
  340000       340000    287.28164    93093.952    5120.0367     0.942689   -778.31475    2432.0739    5526.9252    4774.3261    5058.8587    254.82539   -360.84575   -136.08985    287.28164 
  341000       341000    293.45297    93093.952    4795.8033     0.942689   -819.72244    2459.6311    5127.1862    5354.2055    3906.0182   -872.30614    61.349182   -36.292884    293.45297 
  342000       342000    290.15612    93093.952    4877.7714     0.942689   -788.44533    2454.0659    4594.6067    4661.6791    5377.0284    -2367.287   -445.17509    233.23954    290.15612 
  343000       343000    292.94605    93093.952    5363.4879     0.942689   -747.30658    2526.3821    3858.5175    6905.7415    5326.2045   -1048.7172   -195.15748    255.17755    292.94605 
  344000       344000    297.17961    93093.952     4860.957     0.942689   -837.94186    2483.0572    4013.7474    5525.0742    5044.0495   -1328.1475    223.15727    336.25686    297.17961 
  345000       345000     293.4905    93093.952    4735.3431     0.942689   -776.81142    2502.9616    4704.6472    4237.6164    5263.7658   -1140.4331    394.42038   -486.91992     293.4905 
  346000       346000    287.60671    93093.952    5120.1346     0.942689   -799.66281    2414.3585    4756.6442    5832.5855    4771.1742   -1025.5897    1.6619083   -79.619697    287.60671 
  347000       347000    294.89056    93093.952    5067.1979     0.942689   -826.20214    2469.2167    4942.3326    5643.7733    4615.4878   -1678.0242     50.30757     210.7855    294.89056 
  348000       348000    294.68194    93093.952    6432.1334     0.942689   -631.21307    2661.8744    6543.8013    6003.9611    6748.6377   -1219.9166    376.53991   -758.98507    294.68194 
  349000       349000    288.86552    93093.952    5331.4805     0.942689   -901.52105    2326.5675    4282.2009     6899.969    4812.2716   -21.979443     767.6434   -539.31967    288.86552 
  350000       350000    291.12528    93093.952    5429.6663     0.942689   -780.64432    2472.6973    5386.5657    5709.5396    5192.8938   -1432.9654   -502.70545    91.290399    291.12528 
  351000       351000    295.48738    93093.952    4694.7821     0.942689   -823.58497    2478.5033    4091.2604    5118.5907     4874.495   -1221.1819   -264.97532   -237.68498    295.48738 
  352000       352000    295.78268    93093.952    5790.3356     0.942689   -804.74158    2500.6467     5439.077    6335.2373    5596.6924   -552.83754    368.49541    151.76709    295.78268 
  353000       353000    293.85051    93093.952    4369.9448     0.942689    -791.0774    2492.7187     4245.544    5005.7465    3858.5439   -942.77784    214.23415    869.15104    293.85051 
  354000       354000    297.17681    93093.952    5048.6563     0.942689   -806.19171     2514.776    4296.3869    6472.2823    4377.2997   -1732.7271   -136.59327    172.41817    297.17681 
  355000       355000    289.54083    93093.952    5606.6345     0.942689   -798.40222    2437.2331    5739.3834     5589.902    5490.6179   -351.99366    91.594824    548.62559    289.54083 
  356000       356000    296.56837    93093.952     4997.458     0.942689   -826.29544     2487.873    4787.9269    5271.8101    4932.6368   -896.73155    43.586593    1046.7093    296.56837 
  357000       357000    295.63037    93093.952    5122.2829     0.942689    -786.5014    2517.1848    3253.9432    6490.2802    5622.6252   -927.07586   -436.93099    907.88538    295.63037 
  358000       358000    293.19383    93093.952    4621.5693     0.942689   -836.93791    2439.5199    4609.9405    5734.0408    3520.7266   -1320.2691    609.47886     191.9487    293.19383 
  359000       359000     291.6129    93093.952    5069.3299     0.942689    -758.1672    2500.6235    5578.8505    4460.1747    5168.9645   -765.57502   -43.548821   -559.10157     291.6129 
  360000       360000    295.08432    93093.952    4149.2933     0.942689   -909.19136    2388.3927    3271.4924    4496.2867    4680.1007   -1187.2846   -161.64654   -497.34113    295.08432 
  361000       361000    296.20722    93093.952    5090.7309     0.942689   -724.64842    2585.4842    3663.1685    6237.6453    5371.3789   -1042.7291    207.89628    187.11571    296.20722 
  362000       362000      291.605    93093.952    4647.1826     0.942689   -800.85117    2457.8513    2454.7449    6114.4112    5372.3917   -1119.7361   -578.10992    671.62842      291.605 
  363000       363000    292.47083    93093.952    5289.7373     0.942689   -824.58471    2443.7935    4622.3848    5231.8232     6015.004   -986.80294    -71.18952   -658.32423    292.47083 
  364000       364000    290.07012    93093.952    4727.5236     0.942689   -808.78746    2432.7626    3717.8807    5401.2818    5063.4082   -2347.6652    316.34848    260.68961    290.07012 
  365000       365000    291.55956    93093.952    5350.9131     0.942689   -781.45907    2476.7356    4674.4224     5478.158     5900.159   -1023.2497   -375.87666    328.75945    291.55956 
  366000       366000    290.37565    93093.952    4970.5133     0.942689   -858.40839    2386.5561    4790.2835    5597.1633    4524.0931   -1599.9896   -48.990145    324.93829    290.37565 
  367000       367000    300.02515    93093.952    5452.4124     0.942689   -754.24953    2598.5486    4797.4492    6704.3473    4855.4406   -1075.5239   -440.62512    69.110517    300.02515 
  368000       368000    286.07925    93093.952     4826.383     0.942689   -846.18601    2350.7659     4518.561    4520.5068    5440.0811   -1906.5394   -395.31045   -420.97848    286.07925 
  369000       369000    291.75215    93093.952    5157.3761     0.942689   -796.74419    2463.6027    4651.8023    5863.2518    4957.0741   -1212.4602   -490.58111    231.95809    291.75215 
  370000       370000    291.78317    93093.952    5249.3736     0.942689   -866.40289    2394.2906    4965.7948    5297.5631    5484.7628   -1602.8094    533.61222    43.390717    291.78317 
  371000       371000     301.1261    93093.952    5679.7308     0.942689   -795.51378    2569.5875    6043.0452    5445.8807    5550.2665    -1175.173    109.93937   -592.89267     301.1261 
  372000       372000    294.77258    93093.952    5399.1469     0.942689      -808.53    2485.5703    3968.1463    6812.0256    5417.2689   -1290.1296    162.57855    274.95598    294.77258 
  373000       373000    290.81335    93093.952    5157.1702     0.942689    -782.9941    2466.8616    4634.5305    5396.9737    5440.0065   -1381.7664   -17.293743   -314.65516    290.81335 
  374000       374000    296.03193    93093.952    5002.6782     0.942689    -885.0786     2423.095    3428.0334    6764.4796    4815.5217   -142.67102   -466.99381    466.66319    296.03193 
  375000       375000    294.73213    93093.952    5066.2103     0.942689   -792.67677    2500.9715    5016.2753    5667.9158    4514.4398   -681.94061    154.34752   -442.88768    294.73213 
  376000       376000    293.28316    93093.952    4226.0457     0.942689   -769.44763    2508.0083    2695.7553    5841.6415    4140.7404   -625.18609    476.78745    349.46572    293.28316 
  377000       377000    295.38011    93093.952    3760.1563     0.942689   -797.46342    2503.4261    2950.9805    3654.9956    4674.4928    -1293.326    -203.9751    -416.0579    295.38011 
  378000       378000     280.7247    93093.952    4615.8563     0.942689   -830.42616    2306.6883    3348.8692    5585.8763    4912.8233   -981.41833     493.9386    445.20498     280.7247 
  379000       379000    297.43177    93093.952    5131.9823     0.942689   -741.50382    2582.3131    3982.1507    4985.6039    6428.1922   -1320.3508   -600.54851     -353.615    297.43177 
  380000       380000    292.02753    93093.952    4609.5513     0.942689   -783.50045    2479.9238    3237.7768    5193.6691    5397.2079   -2165.8888    161.04177    146.12231    292.02753 
  381000       381000    289.47462    93093.952    4431.0197     0.942689   -805.71716    2429.1781    2996.3855    5341.9162    4954.7574   -1213.8923   -270.75145    317.35111    289.47462 
  382000       382000    298.45379    93093.952    4561.2541     0.942689    -783.6778    2551.5603    3586.3321    4852.7125    5244.7178   -822.52537     27.39711    35.190523    298.45379 
  383000       383000    286.56624    93093.952    4015.3395     0.942689   -833.62701     2368.767    2970.1941    5061.4438    4014.3806   -1142.9323   -790.60546   -369.58355    286.56624 
  384000       384000    299.44592    93093.952    5178.3822     0.942689   -777.54388    2568.7813    4585.3107    5577.2421    5372.5938   -1001.6521    179.48199    238.44909    299.44592 
  385000       385000     294.0946    93093.952    5125.1431     0.942689   -848.58915    2437.9347    3370.0493    5508.9984    6496.3817   -912.91837   -144.10883    725.58728     294.0946 
  386000       386000    291.98166    93093.952    5007.8565     0.942689   -705.14489    2557.7667    4024.9809    5720.1847    5278.4038   -1144.7317   -441.17062    452.97085    291.98166 
  387000       387000    289.42171    93093.952    4498.9014     0.942689   -872.52364    2361.7804    2983.0635    5346.8781    5166.7627    -1544.896   -178.40498   -40.345347    289.42171 
  388000       388000    288.68253    93093.952    4620.3265     0.942689   -793.84849    2432.1951    3999.7252    5114.2187    4747.0358   -734.63625    86.274712    376.68936    288.68253 
  389000       389000    292.35644    93093.952    5373.0441     0.942689   -730.04973    2537.0501    4397.2209    5359.6737    6362.2378   -996.25193   -102.89644    -297.4808    292.35644 
  390000       390000    292.95941    93093.952    4278.1517     0.942689   -792.88564    2480.9524    4051.7461    4842.3074    3940.4017   -1501.6781   -368.89826    218.19566    292.95941 
  391000       391000    297.81739    93093.952    4343.3581     0.942689   -795.91392    2532.2123    3016.2046    5509.9934    4503.8762   -1562.7528    -95.61119    536.38069    297.81739 
  392000       392000    290.66024    93093.952    5883.3632     0.942689   -822.72995    2425.4147    4731.7881    7408.9505    5509.3509   -1670.5141    -1106.315   -620.38858    290.66024 
  393000       393000    288.29473    93093.952    5635.5078     0.942689   -807.22381    2414.4862    4613.3659    6692.0958    5601.0616   -1511.0134   -153.64708   -149.83822    288.29473 
  394000       394000    295.81703    93093.952    4866.1938     0.942689   -853.53885    2452.2333    3069.4313    5715.1132    5814.0369   -1487.8532    274.78379    13.137249    295.81703 
  395000       395000     298.8119    93093.952    5326.3161     0.942689   -786.11539    2553.1246    5471.5646    5979.6746    4527.7092    -878.5083   -267.56557   -215.61595     298.8119 
  396000       396000    291.37694    93093.952    4120.7941     0.942689   -850.60432    2405.5496    3626.4377    4250.4537    4485.4911   -1394.6701    531.99619    237.32242    291.37694 
  397000       397000    299.33161    93093.952    4944.0332     0.942689   -851.21287    2493.8349    3586.3039    5013.0595    6232.7362    -1723.204   -394.65059    554.89968    299.33161 
  398000       398000    290.92355    93093.952    5769.5385     0.942689   -765.54519     2485.542    5838.7426    5743.8404    5726.0325   -921.08183    239.72082    168.76676    290.92355 
  399000       399000    292.12781    93093.952    4173.5465     0.942689   -824.98368    2439.5613    3521.2174    5042.2332     3957.189   -1020.5406    74.138227    -121.6335    292.12781 
  400000       400000    292.99535    93093.952    5701.9019     0.942689    -680.0072    2594.2325    4269.2399    6019.8534    6816.6125    -881.8131   -335.40684   -379.14892    292.99535 
  401000       401000    288.39541    93093.952    5347.9321     0.942689   -781.17509      2441.66    4869.4756    5884.7062    5289.6145   -1303.7161    -161.9246   -130.76402    288.39541 
  402000       402000    293.59081    93093.952    4478.9176     0.942689   -804.52743    2476.3666    3253.1966    5758.2327    4425.3234   -569.70301    380.27813    232.60268    293.59081 
  403000       403000    294.71287    93093.952    5193.5514     0.942689   -834.81533    2458.6178    4033.0152     5999.456     5548.183   -907.87261   -1111.8652    554.80043    294.71287 
  404000       404000    290.24898    93093.952    5033.4233     0.942689     -794.119    2449.4299    4317.8491    5772.8537    5009.5671   -1012.6859    239.84662   -208.42459    290.24898 
  405000       405000    287.24156    93093.952    4700.0426     0.942689   -797.97826    2411.9625    3914.8455    4797.8811    5387.4011   -1007.8378   -94.232426   -319.65524    287.24156 
  406000       406000    298.22979    93093.952    5574.4053     0.942689   -809.40158    2523.3332    5313.4111    5493.7291    5916.0756   -1245.0553   -825.83826   -39.400144    298.22979 
  407000       407000    291.75595    93093.952    5540.3265     0.942689   -776.78658    2483.6028    3956.1901    7412.1579    5252.6314   -433.58233   -48.683013    485.08343    291.75595 
  408000       408000    289.83522    93093.952    3660.4245     0.942689   -775.37793    2463.5471     2925.602    4374.3411    3681.3303   -141.25591    48.817465   -450.31344    289.83522 
  409000       409000     294.2383    93093.952    4521.9428     0.942689   -770.71413    2517.4156    3679.3686    5527.6736    4358.7861   -1339.3916   -196.70635   -425.22643     294.2383 
  410000       410000    282.99979    93093.952    3967.6428     0.942689     -753.454    2409.0847     2683.633    4932.8753    4286.4201   -1311.8715    223.47161   -231.07097    282.99979 
  411000       411000    295.69987    93093.952     4326.297     0.942689   -809.41041    2495.0524    3030.9821    5476.2291    4471.6797   -918.81121   -474.98307    513.08826    295.69987 
[...]
10907000     10907000    291.71247    93093.952    4957.5716     0.942689    -808.4016    2451.5019    4653.0672    4996.2417     5223.406   -855.36196   -292.27483   -480.69945     292.0737 
10908000     10908000    296.85491    93093.952    4393.4981     0.942689   -896.69574    2420.6747    3539.4626    5128.0427    4512.9892   -1292.3592   -622.58698   -41.448478    297.30085 
10909000     10909000    293.68736    93093.952    5462.0871     0.942689   -863.64303      2418.33    5315.7866    6143.5663    4926.9086   -1258.2326   -279.16351    56.232909    293.93998 
10910000     10910000    289.73147    93093.952    5098.6091     0.942689   -828.70896    2409.0567    4627.5841    5070.6222     5597.621   -889.43524   -368.87696    903.49709    289.95805 
10911000     10911000    292.05835    93093.952    4893.9692     0.942689   -778.20041    2485.5683    4282.6057    5824.0968    4575.2051   -833.66445   -73.857581   -253.83383    292.39053 
10912000     10912000    287.31714    93093.952    5213.5234     0.942689   -756.46604    2454.3193    4976.9152    5894.7939    4768.8612   -1035.8773    268.87824    227.29606    287.68494 
10913000     10913000     294.7415    93093.952    5979.2228     0.942689    -753.8156    2539.9375    5573.9555    6178.2817    6185.4311   -211.90651   -463.07292   -114.86392    295.29935 
10914000     10914000    289.79523    93093.952    4731.8468     0.942689   -810.97169    2427.5065    2803.4441    5450.4191    5941.6771   -1612.1671   -327.76748   -656.16443    290.32678 
10915000     10915000    293.74014    93093.952    5025.3815     0.942689   -794.68358    2487.8792     4819.527    5203.8987    5052.7189   -511.77263   -1211.3836   -886.96393    294.00119 
10916000     10916000    293.93138    93093.952    5182.8076     0.942689   -751.22921    2533.4706    5279.6814    5544.0206    4724.7209   -1599.1766    61.795132   -498.63593     294.2125 
10917000     10917000    289.54588    93093.952    4623.7706     0.942689   -798.22075    2437.4709    3736.2867    5756.0063    4379.0189   -868.17611    591.17036   -628.49618    290.06393 
10918000     10918000    298.38148    93093.952    5307.6022     0.942689   -806.53704    2527.8929    5686.0182    5803.5198    4433.2685   -844.84849   -668.77406   -273.84387    298.84882 
10919000     10919000    290.97395    93093.952    5149.8314     0.942689   -736.74094    2514.9095    4241.3808    5566.3732    5641.7402   -913.19817     369.8204   -14.820752    291.23448 
10920000     10920000    293.32138    93093.952    4860.3358     0.942689   -821.29882    2456.5843    4632.9206    5023.6215    4924.4652   -812.59457    544.15339    744.17565     293.5444 
10921000     10921000    289.73995    93093.952    5079.2188     0.942689   -817.11238     2420.748    4903.7192    6069.7513    4264.1858   -750.71163    47.244921    758.03582    290.00235 
10922000     10922000    291.20208    93093.952    5180.0371     0.942689   -783.33237    2470.8675    4115.7739    5703.1281    5721.2094   -215.80612    685.61001    669.85838    291.64593 
10923000     10923000    293.62031    93093.952    5577.3614     0.942689   -829.76019    2451.4635    4756.9018    6010.2145    5964.9678   -1153.7253    -253.3349   -700.05267    294.12924 
10924000     10924000    290.88344    93093.952    5274.1252     0.942689   -914.86073    2335.7783    5401.8054    6010.8399    4409.7303   -1030.8889    9.7411847    557.58197     291.1812 
10925000     10925000    289.34172    93093.952    5384.6376     0.942689   -821.55336    2411.8568    4491.9388    5259.2937    6402.6804   -557.70008    73.244163    600.21982    289.61736 
10926000     10926000    292.08628    93093.952    5310.0387     0.942689   -758.61554    2505.4652    4554.1507     5864.902    5511.0635   -33.329347   -683.86792    651.11807     292.4558 
10927000     10927000    293.68099    93093.952    4760.0307     0.942689   -855.24414    2426.6576    3992.1896    4611.6884    5676.2142   -488.30077    384.97568    926.74174    293.75054 
10928000     10928000    294.97088    93093.952    5041.6858     0.942689   -871.33243     2424.984    4382.5251    5628.8636    5113.6686   -925.66311    -166.1082    133.85574    295.27355 
10929000     10929000    292.09086    93093.952    4300.9022     0.942689   -778.88913    2485.2429    4722.8698    4371.5627     3808.274   -1909.4649    246.97765     57.14054    292.59965 
10930000     10930000    295.44179    93093.952    4942.9983     0.942689   -792.63141    2508.9474    4984.1708    5458.1254    4386.6988   -856.41223   -927.42627   -228.74722    296.02975 
10931000     10931000    290.93224    93093.952    4225.3706     0.942689   -810.14086    2441.0434    4017.0744    5516.6039    3142.4334   -575.19393      697.755    891.92873    291.40213 
10932000     10932000    290.06811    93093.952    4665.9936     0.942689   -823.20501    2418.3226    4342.3458    5042.3153    4613.3196   -807.16618    115.79105    301.65702    290.43545 
10933000     10933000    297.98925    93093.952    4767.2543     0.942689    -873.8399    2456.2069     4890.653    5158.2585    4252.8514   -950.54982    515.85357   -89.333782    298.20782 
10934000     10934000    291.36672    93093.952    5184.5032     0.942689   -900.55081    2355.4889    4660.1946    5392.3686    5500.9463   -1636.7333   -625.83731    86.050885    292.00887 
10935000     10935000    293.15251    93093.952    4793.3493     0.942689   -819.45727    2456.5386    5671.7608    3712.9903    4995.2968   -1666.1678    854.34341    -213.7643    293.55401 
10936000     10936000    292.36065    93093.952    5076.3545     0.942689   -842.79317    2424.3538     4017.613     6054.833    5156.6173    62.208794    243.99144    22.197037    292.67423 
10937000     10937000    295.28505    93093.952    4364.8211     0.942689   -864.85743    2434.9698    3508.0215    5129.9352    4456.5067   -1003.0107    461.05028    865.20513    295.73315 
10938000     10938000     291.9562    93093.952    4263.8533     0.942689   -783.36332    2479.2638    4851.0895    4609.5106    3330.9596   -782.25051   -181.15487   -31.499369    292.32776 
10939000     10939000    297.68647    93093.952    5130.3651     0.942689   -902.59306    2424.0702    3704.5423    5622.1804    6064.3727   -905.57626   -493.01957    346.85218    298.08683 
10940000     10940000    295.98407    93093.952    6707.5756     0.942689   -839.72744    2467.9114    7841.7674    6098.5293      6182.43   -948.18589   -170.28613    1115.9019    296.53929 
10941000     10941000      290.552    93093.952    5219.7876     0.942689   -782.13954    2464.7956    4723.1598    5008.1724    5928.0305   -1228.0563     11.52005    404.42462    291.06138 
10942000     10942000    291.33178    93093.952    4498.2599     0.942689   -842.24318    2413.4061    4821.5583    4554.6454    4118.5758   -294.24676   -550.24491    267.60618    291.79446 
10943000     10943000    290.90978    93093.952    4083.3944     0.942689   -849.15547    2401.7779    3455.5311    4453.8669    4340.7851   -1040.2765   -141.75322    460.88229     291.1938 
10944000     10944000    296.60014    93093.952    5251.1603     0.942689    -907.2463    2407.2772    5405.1752    5462.0217     4886.284   -1252.0093   -279.30349    53.359567    296.89345 
10945000     10945000    286.26553    93093.952    5122.7048     0.942689   -847.98821    2351.0453    4538.4203    5049.2323    5780.4619   -1312.8854   -109.35098    898.16054    286.63593 
10946000     10946000    297.62754    93093.952    4651.7883     0.942689   -795.99973    2530.0049    3482.8135    5095.1775    5377.3738   -1314.9185   -415.02253    619.22698    297.92136 
10947000     10947000    288.76678    93093.952    4308.2478     0.942689   -826.32556    2400.6597    2966.1793    4748.3686    5210.1956   -668.64888    500.19356    392.99148    289.09316 
10948000     10948000    288.03239    93093.952    4871.8384     0.942689   -785.95492    2432.8235    4272.7318    5000.6816    5342.1019   -1208.7905    557.49896     228.5335    288.49119 
10949000     10949000    295.70366    93093.952    4928.3408     0.942689   -802.02605    2502.4791    4203.4691    5449.9657    5131.5876   -1492.4438   -136.66452   -85.035244    295.91901 
10950000     10950000    289.67395    93093.952    4362.0024     0.942689   -823.68814    2413.4347    4370.3935    5118.9996    3596.6142   -2069.5473   -487.84977    44.026534    290.02118 
10951000     10951000    293.40475    93093.952    5927.6421     0.942689   -709.74048    2569.0743    6430.1109    5850.8009    5502.0145   -1283.1484   -470.11561    213.42934    293.76897 
10952000     10952000    286.10503    93093.952    4302.9845     0.942689   -813.08762    2384.1523    3976.5054    4141.4077    4791.0404   -1215.7974    -807.7496    556.76418    286.61311 
10953000     10953000    295.85364    93093.952    5174.9342     0.942689   -769.78863    2536.3927    5338.0437    5462.7261    4724.0328   -1411.4566   -535.16553   -427.35626    296.20861 
10954000     10954000    288.43275    93093.952      4814.66     0.942689   -834.63152    2388.6208    4373.6448    5270.8507    4799.4845   -920.24701    265.87534     570.7885    288.80023 
10955000     10955000    295.83996    93093.952    5259.7717     0.942689   -770.88264    2535.1458    4377.3569    5786.8055    5615.1526   -825.51152    179.58449    578.83273    296.09078 
10956000     10956000    296.23906    93093.952    5696.0901     0.942689   -794.43302    2516.0554    5283.2244    5849.2201    5955.8259   -929.25038    293.11919    588.96676    296.65212 
10957000     10957000    289.73795    93093.952    4646.9288     0.942689   -774.91018    2462.9279    3742.9318    5676.8455    4521.0089   -1314.0364   -51.701835   -100.01574    290.11486 
10958000     10958000     291.3755    93093.952     4896.223     0.942689   -740.61182    2515.5259    3965.9283    6193.1893    4529.5515   -1633.9858    408.31642   -158.98807    291.64676 
10959000     10959000    295.72788    93093.952    4463.3454     0.942689   -795.65392     2509.122    4392.4067    5058.6653    3938.9641   -894.09535   -29.091727    505.41285    295.94267 
10960000     10960000    298.89698    93093.952    5310.3502     0.942689    -834.7135    2505.4772    4648.1218    6141.9509     5140.978     -1187.07   -275.82934    386.74589    299.40744 
10961000     10961000    290.27291    93093.952    4898.7621     0.942689   -805.09417    2438.7222    4370.7181    5568.3572    4757.2109    -1177.123    152.39797    868.89009    290.45712 
10962000     10962000    293.23763    93093.952    4598.5897     0.942689   -752.62578    2524.3214    3688.3977    5964.3986    4142.9728   -476.38702    636.54099    287.17985      293.478 
10963000     10963000    287.66198    93093.952    5164.8913     0.942689   -746.17231    2468.4667    4033.4351    5540.6289    5920.6097   -683.91507   -30.480732   -787.18978    287.97278 
10964000     10964000    296.37859    93093.952    5807.0953     0.942689   -811.52001    2500.5276    4704.5317    5591.2526    7125.5016   -1673.7997    368.47305    797.24836     296.8265 
10965000     10965000    297.07697    93093.952    5038.5456     0.942689   -752.48593    2567.3661     4840.387     5854.786    4420.4637   -1254.4829    348.73059    215.88714    297.59542 
10966000     10966000    289.58454    93093.952    5305.2968     0.942689   -762.31607    2473.8077    4501.3378    6278.9409    5135.6118   -111.34722    218.55958   -840.04714    290.15142 
10967000     10967000    293.36036    93093.952    4627.1651     0.942689   -847.63716    2430.6816     3857.354    4869.0404    5155.1008   -1270.7319   -164.07339    339.89479    293.78247 
10968000     10968000    289.19081    93093.952    4556.6017     0.942689   -789.03955    2442.6842    3131.6774    5162.3134    5375.8142   -1504.6752   -542.44183    -132.2728    289.53427 
10969000     10969000    291.82968    93093.952    4928.9719     0.942689   -825.24821    2435.9651    3978.1789    5609.7216    5199.0153   -1543.4864     527.2473   -227.64547     292.3342 
10970000     10970000    295.07482    93093.952    6051.7732     0.942689   -768.48761    2528.9903    5182.3553    6499.3705    6473.5937   -1466.9331   -239.89308   -138.60182    295.49037 
10971000     10971000     297.2721    93093.952    4328.7303     0.942689   -898.14613    2423.8864    4084.2341     4757.156    4144.8009   -1681.7587    37.713915   -689.40304    297.53558 
10972000     10972000    294.55019    93093.952    4474.8507     0.942689   -768.07687    2523.5383    3876.8416    4622.9938    4924.7166   -871.88748    351.97071    696.32136    294.96927 
10973000     10973000    292.39927    93093.952     5202.482     0.942689   -843.18573    2424.3927    4245.4645    5861.3974    5500.5842   -1411.0406   -333.28509    289.05205    292.70259 
10974000     10974000    295.03827    93093.952    5694.6289     0.942689   -763.36012    2533.7093    5067.7172    6144.7692    5871.4003   -332.29156    105.71193    -219.6568    295.40151 
10975000     10975000    289.84475    93093.952    4789.7791     0.942689   -799.77702    2439.2545    4911.9542    5000.7948    4456.5884   -1543.0309    540.75834     566.3748    290.29472 
10976000     10976000    286.35721    93093.952    5663.4102     0.942689   -826.55302    2373.5051    4272.7378    6435.1513    6282.3414   -1644.5851    284.76131   -1.4933991    286.55494 
10977000     10977000    292.03802    93093.952    5881.6624     0.942689   -791.28846     2472.253    5864.7299    6649.5278    5130.7295   -860.74906    71.914696    139.95311    292.34704 
10978000     10978000    292.34344    93093.952    4410.5723     0.942689    -868.2232    2398.7314    3570.9591    5186.8907    4473.8671   -1085.1036   -678.94109   -446.73115    292.72701 
10979000     10979000    296.61088    93093.952    4389.8081     0.942689   -761.29339      2553.35    3834.9153    4821.6775    4512.8315   -822.53971   -467.91392   -284.11619    297.04494 
10980000     10980000    286.08498    93093.952    4972.3366     0.942689   -716.54538    2480.4706    4373.3169    5359.6062    5184.0869    -813.5602    -310.2861     467.7172    286.54647 
10981000     10981000    294.16377    93093.952    4863.5805     0.942689   -768.75201    2518.5448    3290.0307    6099.0922    5201.6186   -824.72226   -740.92276    547.02376    294.45946 
10982000     10982000    293.82455    93093.952    4588.6038     0.942689   -771.91623    2511.5898    4157.9781    5353.8692    4253.9642   -1427.4264    5.4719765    298.70785    294.23058 
10983000     10983000    292.42503    93093.952    4625.4748     0.942689   -714.25983    2553.6065    3796.6491    5201.8845    4877.8909   -447.22006    332.53879    222.24525    292.97288 
10984000     10984000    291.73319    93093.952    4021.7511     0.942689   -804.25513    2455.8799    3449.3976    3690.3143    4925.5413   -1484.3155    543.60736    432.58366    292.10938 
10985000     10985000    292.68726    93093.952    5555.5551     0.942689   -771.29795    2499.4989    5429.9888    6753.9518    4482.7249   -1074.6362    432.72364   -700.42262    293.20685 
10986000     10986000    290.03185    93093.952    5185.5977     0.942689   -768.84359    2472.2789    3868.3618    5774.9027    5913.5287   -1464.9517    122.06384    317.60439    290.45766 
10987000     10987000    285.19309    93093.952    5158.3003     0.942689   -779.09678    2407.9522    4432.1392    5716.0534    5326.7084    -1049.968    454.57492    25.565306    285.66238 
10988000     10988000    291.08319    93093.952    5669.5966     0.942689   -737.30273    2515.5685    6438.3981    5918.7155    4651.6762   -2095.4009    368.84194    433.50956    291.58766 
10989000     10989000    288.51451    93093.952    4854.7967     0.942689   -776.92916    2447.2369    4599.4741    5744.6838    4220.2321   -933.06369    225.04287   -82.051001    288.87573 
10990000     10990000    291.01543    93093.952    6375.7195     0.942689   -774.90665    2477.2073    5108.2756    7924.8296    6094.0534   -689.98427    676.48066   -19.124979    291.37928 
10991000     10991000    297.64046    93093.952    6161.7644     0.942689   -807.86756    2518.2815    4697.1082    7664.1376    6124.0475   -443.90226   -261.69339    523.87575    298.03847 
10992000     10992000    291.98192    93093.952     4539.742     0.942689   -858.21501    2404.6996    4354.2281    4672.9074    4592.0905   -1307.0745   -156.95235    -145.4969    Generated thermo.dat
Done!
stress
average  997.268
square average  997220
number of blocks  100
variance  5.17352508063892544226
pxx
average  4372.94
square average  1.91352*10^07
number of blocks  100
variance  11.22308175146202880050
pyy
average  5491.23
square average  3.01585*10^07
number of blocks  100
variance  6.99506047150415991312
pzz
average  5155.99
square average  2.65892*10^07
number of blocks  100
variance  7.04777972130230528816
xx
average  2176.52
square average  4.73725*10^06
number of blocks  100
variance  .32694953739071110666
yy
average  2187.93
square average  4.78705*10^06
number of blocks  100
variance  .35092876770079708015
zz
average  2184.13
square average  4.77044*10^06
number of blocks  100
variance  .40178476825285450335
xx
average  2769.82
square average  7.68445*10^06
number of blocks  100
variance  11.20141401788184954507
yy
average  3879.71
square average  1.5057*10^07
number of blocks  100
variance  6.96442093788133975109
zz
average  3547.27
square average  1.2588*10^07
number of blocks  100
variance  6.98251179734055300793
pressure, stress.strain, ktensor, virial are all concatenated
averages computed will all accumulated data until now
292.27286 
10993000     10993000    295.85955    93093.952    4015.8408     0.942689   -752.26599    2553.9813    3222.3772    4815.9331     4009.212   -2042.1123    504.61661   -284.67509    296.25345 
10994000     10994000    293.46633    93093.952     4526.318     0.942689   -765.73544    2513.7674    4217.0391    5013.3986    4348.5164   -1074.9861   -565.02381    567.40493    293.88914 
10995000     10995000    291.91382    93093.952    3517.0163     0.942689   -845.46319    2416.6904    2734.7415       4403.4    3412.9076   -1285.3311    282.16479   -215.02656    292.24272 
10996000     10996000    297.23783    93093.952    4426.4739     0.942689   -750.29086    2571.3588    3083.2339    4599.2215    5596.9662   -1591.4965    -380.5246  -0.43448531    297.55977 
10997000     10997000    290.67743    93093.952    5883.5425     0.942689   -827.40092    2420.9359    4805.1291    6052.1159    6793.3824    231.10825    474.84671   -153.80574    291.12326 
10998000     10998000    290.20041    93093.952    4820.9234     0.942689   -761.17154    2481.8346    3294.3472    6089.6895    5078.7335   -1956.9991   -13.358351    445.80765    290.62892 
10999000     10999000    289.64257    93093.952    4696.3412     0.942689    -796.8697    2439.9025    4267.1268    5541.0025    4280.8942   -832.74714   -317.88993    368.25895    289.91091 
11000000     11000000    294.25501    93093.952    5630.9195     0.942689   -739.84729    2548.4692     6617.199      5737.42    4538.1396   -795.10323    780.45224     -433.153    294.77937 
Loop time of 1599.21 on 48 procs for 5000000 steps with 3750 atoms

Pair  time (%) = 555.693 (34.748)
Bond  time (%) = 104.28 (6.52074)
Neigh time (%) = 304.432 (19.0364)
Comm  time (%) = 453.768 (28.3746)
Outpt time (%) = 0.361948 (0.022633)
Other time (%) = 180.672 (11.2976)

Nlocal:    78.125 ave 89 max 68 min
Histogram: 2 5 8 3 9 8 3 3 3 4
Nghost:    1376.12 ave 1407 max 1352 min
Histogram: 3 3 7 8 13 4 4 1 2 3
Neighs:    6961.62 ave 8240 max 6042 min
Histogram: 2 8 6 8 10 6 2 1 2 3

Total # of neighbors = 334158
Ave neighs/atom = 89.1088
Ave special neighs/atom = 6.26667
Neighbor list builds = 573716
Dangerous builds = 0
System init for write_restart ...

real	58m38.030s
user	0m0.049s
sys	0m0.056s
