LAMMPS (10 Feb 2015)
Read molecule SQL:
  30 atoms with 4 types
  29 bonds with 1 types
  34 angles with 1 types
  31 dihedrals with 2 types
  6 impropers with 1 types
Reading restart file ...
  restart file = 10 Feb 2015, LAMMPS = 10 Feb 2015
  triclinic box = (111.702 111.702 111.702) to (158.298 158.298 158.298) with tilt (0 0 0)
  3 by 4 by 4 MPI processor grid
  3750 atoms
  3625 bonds
  4250 angles
  3875 dihedrals
  750 impropers
250 atoms in group endatoms
60 atoms in group samplechains
WARNING: New thermo_style command, previous thermo_modify settings will be lost (../output.cpp:665)
Neighbor list info ...
  1 neighbor list requests
  update every 1 steps, delay 0 steps, check yes
  master list distance cutoff = 10.3
Setting up run ...
Memory usage per processor = 2.17603 Mbytes
Step Time Temp Volume Press Density PotEng TotEng Pxx Pyy Pzz Pxy Pyz Pxz myT 
       0            0    292.91308    101167.02    1468.7818     0.867463   -1149.2906    2124.0297    1902.2312    1348.5515    1155.5627     165.4329   -366.45205   -625.32135    292.91308 
    1000         1000    297.28888    101167.02    1136.1397     0.867463   -1165.7407    2156.4795    287.92944    1320.9285    1799.5613   -92.042594    41.109449   -440.58823    297.28888 
    2000         2000    288.46498    101167.02    1254.4609     0.867463   -1208.7666     2014.846    1234.8955    1053.9597    1474.5273   -338.48568    154.21968   -329.41942    288.46498 
    3000         3000    294.20013    101167.02    1377.7187     0.867463   -1175.7453    2111.9579     1277.948    1849.2746    1005.9335    76.874688    429.05909    209.79864    294.20013 
    4000         4000    300.08902    101167.02    1125.7704     0.867463    -1164.991    2188.5209    302.28281    1744.2728    1330.7556    195.18333    -892.4875    328.88475    300.08902 
    5000         5000    288.77926    101167.02    1111.7552     0.867463   -1158.3362    2068.7885    864.14898    1238.4962    1232.6204    632.22747    459.94121    795.57903    288.77926 
    6000         6000    296.91314    101167.02    967.44962     0.867463   -1167.1369    2150.8843    882.35605    701.08441    1318.9084   -245.15524    93.515226    145.44302    296.91314 
    7000         7000    300.97472    101167.02     1111.232     0.867463   -1143.9893    2219.4202      1734.82    561.35463    1037.5213   -449.29207    435.27868    168.97079    300.97472 
    8000         8000     291.7581    101167.02    1301.2964     0.867463    -1139.443    2120.9703    1099.2946    1274.5807     1530.014   -1076.0976    25.939364    663.23017     291.7581 
    9000         9000    301.64097    101167.02    1543.0817     0.867463   -1092.6476    2278.2074     1267.309    1657.1529    1704.7833   -349.04568    49.250451    92.203373    301.64097 
   10000        10000    290.26871    101167.02    1654.6729     0.867463   -1121.4759    2122.2934    1994.0402    1806.8067    1163.1719   -731.00735    -210.6419    541.07498    290.26871 
   11000        11000    295.61041    101167.02    1587.4531     0.867463   -1007.9172    2295.5459    1552.9042    1043.1301    2166.3251   -488.07154   -130.23546    88.499061    295.61041 
   12000        12000    292.50329    101167.02    1476.8893     0.867463   -1156.3005    2112.4404    1465.1712    908.37197    2057.1246   -250.78885   -29.630627     419.4272    292.50329 
   13000        13000     294.0487    101167.02    700.78999     0.867463   -1111.6195    2174.3915     383.8795    1291.2023    427.28819   -190.08935   -76.011829   -617.71765     294.0487 
   14000        14000    298.70598    101167.02    417.24705     0.867463   -1051.8075    2286.2488    645.64084   -265.55565    871.65597    627.34862  -0.94736936    194.71547    298.70598 
   15000        15000    289.93626    101167.02    2172.9277     0.867463   -1101.8981     2138.156    1774.0559    1988.3996    2756.3275   -873.65344    235.43655    19.300448    289.93626 
   16000        16000    294.49973    101167.02    1378.3245     0.867463   -1031.9913      2259.06    697.74394    1851.8413    1585.3882   -440.63345    192.46629   -203.94371    294.49973 
   17000        17000    296.89028    101167.02     1220.133     0.867463   -1045.8861    2271.8796    1340.7298    1094.1734    1225.4958   -1018.5769     20.45465    122.31551    296.89028 
   18000        18000    293.02702    101167.02    438.32517     0.867463   -1107.1701    2167.4236   -119.59185    1144.0816    290.48577   -116.70391   -238.94607    28.101804    293.02702 
   19000        19000     294.8385    101167.02    1784.3985     0.867463   -1086.3088    2208.5283     1628.926     2257.581    1466.6886   -173.99913   -166.03757     392.1931     294.8385 
   20000        20000    294.39063    101167.02      1432.88     0.867463   -1037.5376    2252.2944    823.66968    2205.4059    1269.5644   -1036.2237    18.323549    506.41152    294.39063 
   21000        21000     292.0347    101167.02     1048.818     0.867463   -1109.3693    2154.1351    502.33397     1009.271    1634.8492    -511.4878   -287.82931    793.33953     292.0347 
   22000        22000    300.03774    101167.02    1534.6253     0.867463   -1070.5799    2282.3589    1221.7756    1306.8405    2075.2599   -1004.1529   -520.21639   -79.703624    300.03774 
   23000        23000    292.17023    101167.02    696.28219     0.867463   -1060.6745    2204.3445    683.19207    479.20831    926.44618   -839.75982    270.14555    267.15317    292.17023 
   24000        24000    293.29559    101167.02    1999.3775     0.867463   -1093.1826    2184.4124     1292.017    2453.9606    2252.1548   -799.22086    497.29732   -447.49186    293.29559 
   25000        25000    290.12528    101167.02    1092.8683     0.867463    -977.5039    2264.6626    1043.6589    145.35497     2089.591   -936.37227   -563.85036   -354.25024    290.12528 
   26000        26000    291.43142    101167.02    1525.2817     0.867463   -1057.5979    2199.1648    862.58544    2377.0787    1336.1811   -911.31642    -302.6114    301.75914    291.43142 
   27000        27000    297.64149    101167.02    1124.6757     0.867463   -1040.2287    2285.9319    1066.7425    1218.2147      1089.07   -966.97318    476.99519   -115.08462    297.64149 
   28000        28000    295.81314    101167.02    1393.1049     0.867463   -914.67516    2391.0535    1661.6245    1439.1925    1078.4977   -830.22091   -75.556878    344.64156    295.81314 
   29000        29000    292.32269    101167.02     2324.445     0.867463   -1109.3905    2157.3322    1957.5875    2730.8224    2284.9252   -424.48833    215.77796   -485.28075    292.32269 
   30000        30000    291.39867    101167.02    1986.2206     0.867463   -896.20444    2360.1922    2096.3061    1776.6249    2085.7308   -678.18078    361.88304    176.87442    291.39867 
   31000        31000    289.52916    101167.02    1065.5875     0.867463   -1028.5474    2206.9575    1708.8504    1059.1007    428.81158   -617.95779    -692.3975   -319.20396    289.52916 
   32000        32000    298.92917    101167.02    1989.7703     0.867463   -966.49837    2374.0521     1913.931    2522.1147    1533.2652   -1052.5208    441.45398    506.38315    298.92917 
   33000        33000    300.09534    101167.02    1496.1969     0.867463   -977.70335    2375.8791    1516.0438    769.58263    2202.9642   -1046.8121    -750.8432      187.111    300.09534 
   34000        34000    294.32051    101167.02     1187.186     0.867463   -962.38768    2326.6608    57.034734    1936.9211    1567.6021   -345.76286     419.7722    480.98509    294.32051 
   35000        35000     294.3433    101167.02    2011.9582     0.867463   -1028.3531    2260.9501    1578.5853     2656.912    1800.3773   -761.03859    692.45404   -6.2376781     294.3433 
   36000        36000    289.93613    101167.02    1386.4947     0.867463   -891.12069     2348.932    637.83802    2163.3262    1358.3198   -814.70152   -228.03282     138.2526    289.93613 
   37000        37000    302.40146    101167.02    1404.3418     0.867463   -999.31163    2380.0419    1247.5299    916.49762    2048.9979   -414.19569    1568.5742    230.87888    302.40146 
   38000        38000    286.77374    101167.02    875.84646     0.867463   -929.26349    2275.4493     921.2741    790.52623    915.73904   -903.47688   -411.99728   -59.365583    286.77374 
   39000        39000    302.05393    101167.02    1097.4275     0.867463   -948.32196    2427.1479    1637.4199    868.68012    786.18251   -964.91529   -60.610006    172.87516    302.05393 
   40000        40000    287.79944    101167.02    921.37317     0.867463   -991.31065    2224.8644    155.88927    1245.2391    1362.9911   -754.47737    130.18065   -315.34517    287.79944 
   41000        41000    295.21275    101167.02    1537.6607     0.867463   -930.67628     2368.343    1867.8358    949.31857    1795.8276   -451.76132    625.06348     36.45406    295.21275 
   42000        42000    288.84254    101167.02    1477.8877     0.867463     -912.884    2314.9478     2001.128    1345.2587    1087.2765   -154.41799    57.300152    351.48285    288.84254 
   43000        43000    287.19981    101167.02    1545.9137     0.867463   -946.63197    2262.8422    1502.1713    1929.6664    1205.9035    233.65082   -230.33902    600.89293    287.19981 
   44000        44000    298.10025    101167.02    1325.3578     0.867463   -951.87263    2379.4146    1448.6316    1035.4287    1492.0131   -257.31121    142.48438   -508.26867    298.10025 
   45000        45000    292.05801    101167.02    986.77106     0.867463   -987.25123    2276.5137    1233.5092    508.18045    1218.6235   -997.93126    107.01376    302.00168    292.05801 
   46000        46000    290.47426    101167.02    1731.6707     0.867463   -900.53114    2345.5352    1503.4278    1710.5252    1981.0592   -1091.7311    555.87408    499.40391    290.47426 
   47000        47000    295.28329    101167.02    1545.1738     0.867463   -940.02051    2359.7871     2137.254    1322.3377    1175.9297   -1550.7293   -369.55205   -133.02392    295.28329 
   48000        48000    295.15298    101167.02    1233.9789     0.867463   -873.17385    2425.1775    2026.5071    1036.6414    638.78804   -743.37053     404.6048    459.48391    295.15298 
   49000        49000    294.92805    101167.02    1793.6356     0.867463   -969.49929    2326.3385    1174.8887    1493.1685    2712.8496   -497.35767   -354.99927    404.82959    294.92805 
   50000        50000    293.76179    101167.02    1541.9969     0.867463   -934.80996    2347.9947    1255.5521     1674.105    1696.3337    29.478981   -29.615023   -340.40978    293.76179 
   51000        51000    292.77539    101167.02    1672.6375     0.867463   -927.75324    2344.0283    1529.1994    1795.6297    1693.0833   -580.47278    176.28367   -458.16681    292.77539 
   52000        52000    289.80276    101167.02    2089.6528     0.867463   -1003.6277    2234.9347    2476.2895    2684.8753    1107.7936   -989.99472   -159.37926    372.08898    289.80276 
   53000        53000    295.19163    101167.02     1368.948     0.867463   -933.26937    2365.5139    1098.1921     1342.104    1666.5481     1.797981   -34.470973    344.82254    295.19163 
   54000        54000    288.95359    101167.02    1603.2315     0.867463   -977.95864    2251.1141    1178.8807    1610.7183    2020.0955   -1060.0868    193.98688    557.99267    288.95359 
   55000        55000    304.14462    101167.02    1957.3181     0.867463   -953.96245    2444.8709    2344.0134    2303.3599     1224.581    123.13018   -172.78725    174.57308    304.14462 
   56000        56000    300.49872    101167.02    2213.8308     0.867463   -955.83788    2402.2524    2513.7494    1695.1917    2432.5513     65.74226    448.14901   -689.94669    300.49872 
   57000        57000    286.24078    101167.02     1695.657     0.867463   -988.80582    2209.9512    1458.9569    890.99577    2737.0182   -862.48504   -21.852187     121.5447    286.24078 
   58000        58000    296.55053    101167.02    1612.6381     0.867463   -986.41886    2327.5502    1225.1936    1846.1454    1766.5753    97.423302    392.79389   -259.41006    296.55053 
   59000        59000    294.06599    101167.02    1236.0931     0.867463   -991.17768    2295.0265    1316.9744    1082.4569    1308.8481   -91.650588   -130.38963   -216.29912    294.06599 
   60000        60000    284.63947    101167.02    1369.3329     0.867463   -944.13457    2236.7277    1658.2869    1507.1242    942.58774    352.61564   -326.80565   -462.27591    284.63947 
   61000        61000    291.32823    101167.02    2145.4387     0.867463   -933.53243    2322.0771    2450.5403    1913.3223    2072.4535   -1309.6213   -671.12286    550.58154    291.32823 
   62000        62000    285.59767    101167.02    866.59148     0.867463   -993.69683    2197.8733    1673.5811    342.31348    583.87989   -300.96491   -383.11291   -693.85292    285.59767 
   63000        63000    294.58016    101167.02    1392.9697     0.867463   -980.04137    2311.9087    1654.2668    1203.7848    1320.8576   -1066.7571    86.948827   -181.47743    294.58016 
   64000        64000    291.06055    101167.02    1720.2471     0.867463    -942.5916    2310.0266    1108.1282    2056.5128    1996.1001    142.42194   -500.09475   -112.35254    291.06055 
   65000        65000    292.49193    101167.02     1828.258     0.867463   -1009.0708    2259.5431    2206.4051    2070.2895    1208.0793    222.94646    840.41567   -696.38609    292.49193 
   66000        66000    294.83236    101167.02    986.91645     0.867463   -965.94263    2328.8258    1183.1362    562.14297    1215.4702   -1422.0583    200.74306   -586.59036    294.83236 
   67000        67000     292.2738    101167.02    1366.1906     0.867463   -1004.7646    2261.4118    1356.1744    1558.4228    1183.9745   -44.928615    -349.9822    313.47131     292.2738 
   68000        68000    292.12373    101167.02    2392.9318     0.867463   -1030.1489    2234.3504    2374.2217    2242.2515    2562.3223    -754.3518    -18.03014   -51.485965    292.12373 
   69000        69000    294.28931    101167.02    1216.0149     0.867463   -1089.3858     2199.314    1095.7596    1571.5069    980.77809    -469.7919    259.05619   -18.041485    294.28931 
   70000        70000    298.49827    101167.02    2443.5366     0.867463   -999.98419     2335.751    1519.6364    2592.6284    3218.3449    207.67997    527.54924    493.86226    298.49827 
   71000        71000    287.26394    101167.02    1297.6988     0.867463   -1053.3897    2156.8011    1024.4275    1073.8015    1794.8673   -551.40102    -435.9089    -131.1641    287.26394 
   72000        72000    297.88402    101167.02    1151.4861     0.867463   -981.63577    2347.2351    2013.3502    701.91009     739.1981   -314.50269      357.658   -135.42068    297.88402 
   73000        73000    298.67548    101167.02    1813.3759     0.867463   -949.22221    2388.4932     1736.585    2433.5168    1270.0258   -6.5183164   -23.938325    -236.2763    298.67548 
   74000        74000    291.48522    101167.02    996.80495     0.867463    -997.7931    2259.5708    1827.2326    964.23108    198.95116   -353.58174    855.91563    232.68415    291.48522 
   75000        75000    288.23806    101167.02     1091.552     0.867463   -969.70564    2251.3711    486.56714    774.73916    2013.3496   -1112.8193   -434.72733    214.16941    288.23806 
   76000        76000    298.34933    101167.02    1680.0619     0.867463   -954.45859    2379.6121    2070.9047    1703.8855    1265.3956   -943.51694   -240.17148   -168.69044    298.34933 
   77000        77000    292.53369    101167.02    910.71228     0.867463    -1061.738    2207.3427    1522.7665     458.3201    751.05023    2.3407456    56.327763   -627.31153    292.53369 
   78000        78000     297.1836    101167.02    1025.9679     0.867463   -992.32254    2328.7211    1633.2593    732.66068    711.98372   -839.09042    153.46697   -1179.4725     297.1836 
   79000        79000    294.89219    101167.02    1218.4881     0.867463   -934.02201     2361.415    1622.4086    1153.0305    880.02515   -1230.3059    57.231853    195.43574    294.89219 
   80000        80000      294.799    101167.02    831.39083     0.867463   -992.44031    2301.9553    1076.9539    329.81422    1087.4044   -1695.3095   -208.75772     -570.899      294.799 
   81000        81000    293.67893    101167.02    1210.6542     0.867463   -987.48426    2294.3944     707.5578    1010.8907     1913.514   -1182.4362    507.20456   -50.049974    293.67893 
   82000        82000    291.14952    101167.02    2000.0755     0.867463   -1017.7625      2235.85    2575.4157    1785.1938    1639.6169   -476.03962    183.21422   -169.80506    291.14952 
   83000        83000    296.47479    101167.02     1568.452     0.867463   -957.35854    2355.7641    705.70038    1767.8553    2231.8002   -706.53806    112.85491      339.005    296.47479 
   84000        84000    295.49509    101167.02    1760.1912     0.867463   -888.94444      2413.23    1505.5281    1929.4443    1845.6011   -1135.8591   -498.80015    8.7189158    295.49509 
   85000        85000     289.5191    101167.02    1728.5311     0.867463   -1061.5354    2173.8569    2070.3963    1299.9413    1815.2558   -858.34383   -284.32104   -626.32783     289.5191 
   86000        86000     293.2657    101167.02    1516.4507     0.867463   -972.35767    2304.9032    1841.4102    1180.8596    1527.0822   -841.43999    -323.3583   -222.67485     293.2657 
   87000        87000    300.12174    101167.02    1394.3255     0.867463   -1007.6535     2346.224    1423.0236    1479.9762    1279.9768   -1496.2599    41.076899    135.71349    300.12174 
   88000        88000    288.38425    101167.02    1649.3779     0.867463   -992.14844     2230.562    654.43493    2161.1823    2132.5164   -654.19858    154.22368   -121.24049    288.38425 
   89000        89000    290.67182    101167.02     1407.471     0.867463   -894.65331    2353.6208    1304.9826    1508.0272    1409.4033   -178.80629    24.675905   -287.17364    290.67182 
   90000        90000    295.60361    101167.02    2034.1566     0.867463   -1047.2309    2256.1562     2009.062     1583.122    2510.2857   -671.49994     395.7455    2.2082587    295.60361 
   91000        91000    291.07403    101167.02     1009.578     0.867463   -873.90731    2378.8616    876.86412    1434.5578      717.312   -871.71805   -330.00094   -213.33232    291.07403 
   92000        92000     292.1364    101167.02    1702.8124     0.867463   -1012.6196    2252.0212    1074.9148    2035.2329    1998.2893   -445.34475    26.591544    151.59002     292.1364 
   93000        93000    291.81804    101167.02    1769.1286     0.867463   -880.99303    2380.0902     1233.595    1960.6551    2113.1358   -903.63036    1172.1459   -253.77475    291.81804 
   94000        94000    295.84448    101167.02    1616.8047     0.867463   -1005.9741    2300.1047    1156.9855     1842.126    1851.3024   -782.60841    38.593572    253.57294    295.84448 
   95000        95000    295.20434    101167.02    1481.8407     0.867463   -962.57426     2336.351     2054.993    1689.3929    701.13621   -803.40584    105.58341   -646.79884    295.20434 
   96000        96000    294.03197    101167.02    1743.5373     0.867463   -868.12303     2417.701    2056.3545    1237.2948    1936.9625   -1225.5893    67.978767    82.361294    294.03197 
   97000        97000    294.30221    101167.02    1909.3233     0.867463   -946.60946    2342.2345    1798.4854    2280.1053    1649.3792   -534.74942   -183.82287   -340.24894    294.30221 
   98000        98000     297.8063    101167.02    1847.9337     0.867463   -947.36638     2380.636    1479.0939    2649.7612    1414.9458   -1372.6605    175.46323   -399.35897     297.8063 
   99000        99000    287.37095    101167.02    1679.2305     0.867463   -953.81002    2257.5767    1760.3707    1433.7289    1843.5921   -1038.2612   -141.26831    38.061182    287.37095 
  100000       100000    297.27514    101167.02    2684.5096     0.867463   -928.60176    2393.4648    3063.9769    3378.0506    1611.5013   -872.06662    129.01371   -1620.6938    297.27514 
  101000       101000    293.46453    101167.02    1777.5985     0.867463   -869.51246    2409.9703    1034.9609    2432.5323    1865.3022   -104.54849   -474.13527   -196.34116    293.46453 
  102000       102000    291.53039    101167.02     1174.045     0.867463   -925.07809    2332.7906    1243.0746    1508.6434    770.41687   -960.79039    207.18737   -41.868064    291.53039 
  103000       103000    299.88098    101167.02    1509.8708     0.867463   -880.49102     2470.696    1513.2561    1932.5133     1083.843   -672.68208    59.882322     312.1585    299.88098 
  104000       104000    289.40033    101167.02    1016.3044     0.867463   -1003.3567    2230.7085    996.50081    637.39508    1415.0172   -483.34841    70.987162   -550.86875    289.40033 
  105000       105000    294.24326    101167.02    1906.2144     0.867463   -825.81102    2462.3741    817.57123    2583.5245    2317.5476   -900.52998   -617.50256   -623.92656    294.24326 
  106000       106000    293.94709    101167.02    808.28582     0.867463   -943.61265    2341.2628     1270.246    507.02087    647.59057   -1450.8876   -276.93626    105.73219    293.94709 
  107000       107000    298.52355    101167.02    1397.8052     0.867463   -837.60657     2498.411    613.97462    2058.2555    1521.1854   -1441.7502    67.564977    427.69123    298.52355 
  108000       108000    286.33396    101167.02    1088.1587     0.867463   -956.10129     2243.697    1178.1699    550.61095    1535.6953   -329.83332    -17.05277   -28.778622    286.33396 
  109000       109000    299.62399    101167.02     2245.896     0.867463   -847.78311     2500.532    2335.5435    1983.2251    2418.9195   -638.50168   -201.05886   -73.696829    299.62399 
  110000       110000    286.50624    101167.02    1755.6633     0.867463   -902.66142    2299.0621    1462.1767     2250.851    1553.9622   -1204.1789    -75.46548    350.54516    286.50624 
  111000       111000    293.23079    101167.02    738.82377     0.867463   -879.25698    2397.6138    24.485867    1610.1626    581.82288   -1462.6558   -24.741499   -360.37966    293.23079 
  112000       112000    292.73988    101167.02    1361.2655     0.867463   -906.94339    2364.4414    2121.3013    1035.6851     926.8101   -1092.9921   -604.65038    104.89325    292.73988 
  113000       113000    290.87356    101167.02    1204.6622     0.867463   -915.49276    2335.0359    1815.1325    690.69572    1108.1583   -945.49016    153.36265    116.34373    290.87356 
  114000       114000    293.33737    101167.02     1347.854     0.867463   -923.15321    2354.9086    1267.7884    2656.4136       119.36   -619.68979    -145.1264    177.15538    293.33737 
  115000       115000    295.70265    101167.02    2327.8912     0.867463   -873.23123    2431.2626    2901.5282    2034.4457    2047.6997   -731.97683    216.16972    38.322285    295.70265 
  116000       116000    284.41823    101167.02    1644.9587     0.867463   -900.10887     2278.281     898.5637     1693.567    2342.7454   -1160.3088    295.72418   -122.77271    284.41823 
  117000       117000    297.84389    101167.02    1748.1714     0.867463   -874.82375    2453.5986    2244.1808    1120.7246    1879.6089    -1048.392   -233.74128    296.67693    297.84389 
  118000       118000    294.21362    101167.02    2240.2457     0.867463   -892.03084    2395.8231    2233.8009    2753.1537    1733.7825     68.81982   -272.04618   -21.847951    294.21362 
  119000       119000    296.82867    101167.02    2219.8506     0.867463   -940.49226     2376.585    1699.7605    2517.5179    2442.2733   -179.60545   -244.01137   -163.29516    296.82867 
  120000       120000    295.89243    101167.02    1490.1141     0.867463   -915.24481    2391.3699    1317.9542    1421.7804    1730.6077   -117.88814   -674.99204   -80.610069    295.89243 
  121000       121000    296.43789    101167.02     2604.901     0.867463   -856.26304    2456.4472    2021.2983    2809.6992    2983.7055   -348.34328    545.66211    119.87935    296.43789 
  122000       122000    290.91305    101167.02    1566.6119     0.867463   -854.10734    2396.8626    762.76175    2075.4859     1861.588   -386.87905    923.43879    107.99808    290.91305 
  123000       123000    295.12882    101167.02    1495.3409     0.867463   -886.36754    2411.7138    1847.4389    831.11564    1807.4681   -404.16707   -290.62943     191.3941    295.12882 
  124000       124000    294.39869    101167.02    1565.4355     0.867463   -868.38444    2421.5377     1422.764    1683.1214     1590.421   -467.76245   -327.39552    188.58992    294.39869 
  125000       125000    299.67759    101167.02    1916.6645     0.867463   -952.34133    2396.5728    1180.3411     2722.636    1847.0164   -786.70716     472.1261    26.549548    299.67759 
  126000       126000    292.78113    101167.02    1629.7513     0.867463     -929.299    2342.5468    933.95347    2190.2959    1765.0046    710.22371    889.08446    327.98862    292.78113 
  127000       127000    291.14143    101167.02    1472.7095     0.867463   -886.71123    2366.8108    1463.4835    1744.6269    1210.0181   -965.40818   -165.28874   -793.82706    291.14143 
  128000       128000    291.01395    101167.02    2237.5254     0.867463   -824.81642     2427.281    2546.8943    2090.9583    2074.7236    185.45631   -80.790715    370.22354    291.01395 
  129000       129000    294.05229    101167.02    1687.5048     0.867463   -986.95188    2299.0991    1835.0276    1306.1545    1921.3322   -637.21015    515.57588   -142.85402    294.05229 
  130000       130000    295.77318    101167.02    1496.5904     0.867463   -895.89894    2409.3831    1669.8476    2108.4637    711.45993   -723.20488    182.16469    695.78535    295.77318 
  131000       131000    288.35909    101167.02    1334.8537     0.867463   -937.42706    2285.0021    1821.1564    774.42119    1408.9834   -1451.6725   -199.91334   -471.58909    288.35909 
  132000       132000    297.39209    101167.02    1328.5295     0.867463   -849.06386    2474.3096    948.76327    1092.0118    1944.8133   -1211.6316   -567.67572   -495.95883    297.39209 
  133000       133000    291.15976    101167.02    1484.5579     0.867463   -932.79936    2320.9276    1292.9332    1475.3361    1685.4045     401.1663    21.035363   -520.66887    291.15976 
  134000       134000    294.46874    101167.02    719.78639     0.867463   -880.00634    2410.6986    740.90072    796.52303    621.93542   -649.06528   -61.132466    -278.0628    294.46874 
  135000       135000    289.12477    101167.02    1624.6005     0.867463   -861.66568    2369.3201    1127.7203    2579.1398    1166.9415   -799.25957    228.90007   -5.2728316    289.12477 
  136000       136000    290.62595    101167.02    1466.8233     0.867463   -1025.4267    2222.3348    1386.3134    1714.5854    1299.5711   -77.050592    263.37557   -576.00292    290.62595 
  137000       137000    297.32238    101167.02    1504.2212     0.867463   -864.96365    2457.6309    2423.9324    1058.6167    1030.1147    328.29505    228.99182     330.3814    297.32238 
  138000       138000    292.25882    101167.02    1205.6742     0.867463   -928.91332    2337.0957    1312.9136     459.1569     1844.952   -873.97203   -288.79487   -622.55664    292.25882 
  139000       139000    290.24746    101167.02    1743.7965     0.867463   -877.08276    2366.4491    1714.6898    1466.9639    2049.7357    -858.1398    17.570241    295.45636    290.24746 
  140000       140000    298.84868    101167.02    1244.5362     0.867463   -929.40843    2410.2425    1762.5187    734.78364    1236.3063   -518.29079   -575.16573   -26.991502    298.84868 
  141000       141000    298.01504    101167.02    1376.4607     0.867463   -941.07976    2389.2553     1810.248    886.69867    1432.4356     -789.395   -54.144765    74.434136    298.01504 
  142000       142000     287.0998    101167.02    1575.1112     0.867463   -952.56012    2255.7965    1502.2309    1549.2756    1673.8272   -88.996606    289.31983    524.46519     287.0998 
  143000       143000    295.26499    101167.02    1690.4476     0.867463   -998.87232    2300.7307     1795.069    1623.3544    1652.9194   -190.05188    70.855779    191.09676    295.26499 
  144000       144000    294.24222    101167.02    1675.4124     0.867463   -886.02728    2402.1462    2237.5204     1634.203    1154.5139   -194.94797    199.17755    88.673083    294.24222 
  145000       145000    289.29011    101167.02    1776.9016     0.867463    -991.7214     2241.112    680.04854    2633.9918    2016.6646   -453.63939      514.315   -381.00024    289.29011 
  146000       146000    297.03676    101167.02     1403.444     0.867463   -981.39532    2338.0073    1940.8951    802.38316    1467.0538    -151.3367   -216.90947     93.06311    297.03676 
  147000       147000    297.51209    101167.02    1418.7568     0.867463   -1012.9612    2311.7533     512.0275    1971.0114    1773.2315   -765.88884    323.02424    9.5539659    297.51209 
  148000       148000    301.47991    101167.02    2039.0015     0.867463   -961.34357    2407.7115    873.80496    2470.9507    2772.2489   -793.03891    403.63085    135.75738    301.47991 
  149000       149000    294.68042    101167.02    1947.9765     0.867463   -946.44696    2346.6235    2341.6025    1971.2581     1531.069   -375.38957    278.44265   -733.14032    294.68042 
  150000       150000    291.78535    101167.02    1522.9771     0.867463   -966.74969    2293.9682    1788.7168    1887.9208     892.2938   -517.91044   -44.476529   -200.11357    291.78535 
  151000       151000     294.1536    101167.02    1025.4412     0.867463   -835.96104    2451.2222    622.01824    925.08148     1529.224   -771.69161    281.35142    133.16711     294.1536 
  152000       152000    289.78368    101167.02    929.20202     0.867463   -1037.6259    2200.7232    898.19153    1450.9466    438.46793   -1322.3102   -277.86552   -433.92678    289.78368 
  153000       153000     295.8464    101167.02    1526.2291     0.867463   -892.80464    2413.2957    1593.0801    1428.2167    1557.3905   -891.04538   -814.20993   -567.09207     295.8464 
  154000       154000    289.68232    101167.02     1290.145     0.867463   -920.53221    2316.6841    926.15107    1494.9616    1449.3222   -913.22662   -377.08985    74.838931    289.68232 
  155000       155000    294.79293    101167.02    1441.8425     0.867463   -903.12543    2391.2024    798.13854    2243.9527    1283.4362    -636.9739   -88.500829    387.20647    294.79293 
  156000       156000    291.89786    101167.02    1774.3727     0.867463   -938.87868    2323.0965    1344.5925    2479.0261    1499.4996   -848.58328    597.69203   -724.41816    291.89786 
  157000       157000    295.68666    101167.02    1012.1918     0.867463    -849.0047    2455.3106    149.53521    1656.7574    1230.2828   -96.098852    331.38166    27.487742    295.68666 
  158000       158000    293.10395    101167.02    2277.9936     0.867463   -886.96923     2388.484    1787.9112    2706.1572    2339.9124   -844.21672    481.85202    305.30292    293.10395 
  159000       159000    300.19131    101167.02    1133.4713     0.867463   -921.64382    2433.0111    678.66058    1685.0898    1036.6634   -798.46373    244.67156   -323.42426    300.19131 
  160000       160000    292.78282    101167.02    896.06363     0.867463   -882.43455    2389.4301     885.9578    23.563421    1778.6697   -787.11814    126.48688   -439.17055    292.78282 
  161000       161000    297.08783    101167.02    2500.6666     0.867463   -940.71558    2379.2578    1853.6397    2807.0842    2841.2759   -482.51189    69.745358   -40.484288    297.08783 
  162000       162000    293.29985    101167.02    1028.3774     0.867463   -936.49867    2341.1438    -13.74717    996.58801    2102.2914   -807.47515    507.94631    75.889707    293.29985 
  163000       163000    293.04874    101167.02    2536.1388     0.867463   -927.23403    2347.6023    2361.6842    3164.8273    2081.9051   -111.59135    -692.4281     -405.858    293.04874 
  164000       164000    297.53236    101167.02    667.30391     0.867463   -968.28585    2356.6552     33.71837    738.49428    1229.6991   -719.51776   -51.498512    199.65998    297.53236 
  165000       165000    289.59457    101167.02    1558.6464     0.867463   -863.58114    2372.6547    948.10227    1750.3342    1977.5029    -546.8409    -168.3896    -133.0091    289.59457 
  166000       166000    290.77904    101167.02     1443.681     0.867463   -992.75229    2256.7201     1457.812    1011.0387    1862.1923    -690.8276   -270.04302   -379.95699    290.77904 
  167000       167000    292.47358    101167.02    2070.5522     0.867463   -849.43183    2418.9771    1849.6113    1735.8152    2626.2299    101.96861     1353.102    12.294982    292.47358 
  168000       168000    290.51723    101167.02    1209.5491     0.867463     -915.543    2331.0035     1050.953    2000.1862    577.50816   -745.99995    -122.4783   -754.66107    290.51723 
  169000       169000    291.27429    101167.02    1050.1246     0.867463   -857.95412    2397.0526    1130.6317    1627.4116    392.33068   -359.53898     439.4721    520.66671    291.27429 
  170000       170000    290.48606    101167.02    1607.3214     0.867463   -903.85877    2342.3394    1373.4166    2023.6729    1424.8746   -213.03469    397.59014   -614.30825    290.48606 
  171000       171000    294.36833    101167.02    1434.6577     0.867463   -928.73888     2360.844    840.11473    1917.3432    1546.5151   -227.35393   -477.01451   -420.90398    294.36833 
  172000       172000    294.83258    101167.02    2301.7242     0.867463   -869.67147    2425.0994    1681.4389    2534.1658     2689.568   -638.64742    33.166844   -973.83515    294.83258 
  173000       173000    289.52298    101167.02    1407.1477     0.867463   -1033.4758      2201.96    1307.8541    1538.6361    1374.9529   -1165.4196    191.38085    282.08465    289.52298 
  174000       174000    296.90144    101167.02    1261.4653     0.867463   -921.00997    2396.8805    159.34146    1388.4418    2236.6125   -684.24843    664.60787   -99.473672    296.90144 
  175000       175000    292.77503    101167.02    2198.3696     0.867463   -949.15359     2322.624     1353.727    2444.1309    2797.2509   -200.43303    38.224345   -208.86301    292.77503 
  176000       176000     296.4988    101167.02    435.98224     0.867463   -970.07811    2343.3128   -289.04527     857.6232     739.3688   -799.32282    375.87856    253.39223     296.4988 
  177000       177000    295.86544    101167.02    1060.6835     0.867463   -989.82168    2316.4914    333.30317     2060.339     788.4083   -82.400609    5.0134856   -265.05512    295.86544 
  178000       178000    291.66091    101167.02     1033.022     0.867463   -950.89686    2308.4304    1660.8456    1368.3304    69.890075   -903.15548    317.67432   -406.60522    291.66091 
  179000       179000    287.68953    101167.02     973.8684     0.867463   -949.97022    2264.9767    1142.4027    957.76378    821.43876   -1072.0384    200.16929   -452.55646    287.68953 
  180000       180000    299.71085    101167.02    1808.1312     0.867463    -907.4689    2441.8169    2072.6256    2302.9723    1048.7958   -169.56729   -311.13281      -313.29    299.71085 
  181000       181000    295.50461    101167.02    1770.8303     0.867463   -1027.7362    2274.5445    1412.0458    1720.2828    2180.1624   -1553.0232    504.28797    30.643016    295.50461 
  182000       182000     296.2754    101167.02    1009.8333     0.867463    -932.6673    2378.2272    254.91422    1612.6912    1161.8945   -886.60921   -156.92101    111.74834     296.2754 
  183000       183000     287.2195    101167.02    883.92297     0.867463   -973.45952    2236.2347    260.80454    1309.1028    1081.8615   -882.97112   -594.14679    188.08305     287.2195 
  184000       184000    294.90659    101167.02    1773.8358     0.867463   -952.87134    2342.7266    1448.7498    1522.7402    2350.0175   -108.02925   -205.51702   -168.33227    294.90659 
  185000       185000    296.39654    101167.02    1118.8385     0.867463   -854.76614    2457.4821    787.28256    1391.4997    1177.7331   -1352.9253   -210.33366    290.06016    296.39654 
  186000       186000    292.57558    101167.02    1731.2183     0.867463   -941.41399    2328.1348    980.70067    1711.5977    2501.3565   -1073.9764   -462.03782    269.21004    292.57558 
  187000       187000    295.21898    101167.02    2419.3212     0.867463   -915.53497    2383.5539    2182.3923    2922.0548    2153.5164   -896.12016    80.582414   -407.60123    295.21898 
  188000       188000    292.14029    101167.02    1302.9703     0.867463   -879.20751    2385.4768    793.43318    1847.0996    1268.3781   -205.66077    -452.6267   -26.179709    292.14029 
  189000       189000     295.1656    101167.02    1068.3695     0.867463   -911.85651    2386.6359    1131.1611    1051.7554    1022.1919   -742.98063   -1058.1933   -175.13107     295.1656 
  190000       190000    290.40033    101167.02    1633.5108     0.867463   -900.23047    2345.0098    1282.8132    1821.2542    1796.4649   -1387.6285   -141.09697    -173.7119    290.40033 
  191000       191000    289.37664    101167.02    966.69327     0.867463   -932.41102    2301.3894    569.67305    2085.6544     244.7524   -976.54171   -132.30835   -1337.0199    289.37664 
  192000       192000     294.9728    101167.02    1547.7964     0.867463   -906.68545    2389.6523    1693.5804    1566.6597    1383.1492   -594.64989   -343.86828   -165.69476     294.9728 
  193000       193000    296.50039    101167.02    1696.9425     0.867463   -883.96613    2429.4426    1527.4183    2235.9407    1327.4683   -1195.7421    301.99886    284.16916    296.50039 
  194000       194000    290.36952    101167.02    2605.4632     0.867463   -958.21066    2286.6852    2930.7079    2471.3781    2414.3035   -603.90771   -286.87641   -72.377001    290.36952 
  195000       195000    296.24998    101167.02      1267.86     0.867463   -879.33382    2431.2765    356.06865    1959.5821    1487.9291   -1844.8349    442.78957   -634.41224    296.24998 
  196000       196000    291.61178    101167.02    1753.1465     0.867463   -887.81717     2370.961    1779.7201    1657.0359    1822.6836    -1802.498    65.778166    299.36604    291.61178 
  197000       197000    292.73684    101167.02    1857.5369     0.867463   -908.54956    2362.8012    1197.3003    2490.5531    1884.7573   -366.10576    193.80793    951.33721    292.73684 
  198000       198000    300.30053    101167.02     1165.484     0.867463   -969.60095    2386.2746    1231.2764    1141.0203    1124.1553   -1093.0206   -468.66021    49.866256    300.30053 
  199000       199000    296.77648    101167.02    1379.9791     0.867463   -863.29073    2453.2033    1680.2064    1318.4206    1141.3104   -1004.6525   -603.89115   -503.55777    296.77648 
  200000       200000    295.21055    101167.02    2087.2241     0.867463   -815.30201    2483.6926    1509.2566    2277.4323    2474.9835    74.983627   -775.41682   -165.35194    295.21055 
  201000       201000    284.24648    101167.02    1722.3754     0.867463   -918.47807    2257.9925    1064.5146    1787.9388    2314.6728   -42.901053    407.16198   -785.93281    284.24648 
  202000       202000     301.4174    101167.02    1526.6901     0.867463   -889.77851     2478.578    1091.0505    1516.1817    1972.8382   -289.18093    9.7483303    228.00731     301.4174 
  203000       203000    290.91843    101167.02    951.11578     0.867463   -840.49675    2410.5333    27.566806    1108.0804    1717.7001    -951.8312    24.754934     90.40116    290.91843 
  204000       204000    290.14311    101167.02    1896.2186     0.867463   -936.17223    2306.1935    904.37199    2063.1395    2721.1443   -356.62238   -280.85375    328.59207    290.14311 
  205000       205000    295.64171    101167.02    1713.1604     0.867463   -911.86091     2391.952     1167.708    2573.7765    1397.9968    160.39395   -379.21707   -520.75892    295.64171 
  206000       206000    291.23384    101167.02    1656.5628     0.867463   -889.44322    2365.1115    866.77149    1592.5853    2510.3316   -1273.9539   -428.02402    -53.95831    291.23384 
  207000       207000    288.09843    101167.02    1363.3653     0.867463    -935.3734    2284.1429    1499.9161    1487.2246    1102.9551   -470.03972    284.61685   -679.33015    288.09843 
  208000       208000    298.67796    101167.02    1545.0265     0.867463    -952.7318    2385.0114    745.63057    2315.7091    1573.7397   -439.45576    914.10119    -9.458417    298.67796 
  209000       209000    294.57686    101167.02    1553.4424     0.867463    -959.4732      2332.44    1578.9585    1934.9084    1146.4602   -713.43602     222.9285     248.4751    294.57686 
  210000       210000    291.76974    101167.02    853.21845     0.867463   -916.66902    2343.8744    411.43356    1358.5357     789.6861   -886.19033   -317.62441   -529.31164    291.76974 
  211000       211000    288.85251    101167.02    842.48673     0.867463   -930.61902    2297.3242    800.32445    1435.4976    291.63813   -308.49842    261.42239   -608.43473    288.85251 
  212000       212000    297.88031    101167.02    2507.8167     0.867463   -876.04797    2452.7814    2720.4329    1785.5698    3017.4475   -857.43731   -441.75988   -557.55843    297.88031 
  213000       213000    290.14736    101167.02    1112.3878     0.867463   -825.21657    2417.1967    438.22418    1091.5725    1807.3667   -1240.4856   -27.966426     220.9154    290.14736 
  214000       214000    286.52943    101167.02    1942.4938     0.867463   -930.37757    2271.6051    1056.2323    2515.3357    2255.9136    -286.6914     -202.608   -2.7637415    286.52943 
  215000       215000    295.08947    101167.02    1579.7081     0.867463   -970.64423    2326.9974    790.22695    2273.4576    1675.4398   -383.34696    1079.9357   -78.033637    295.08947 
  216000       216000    291.04078    101167.02    1814.8502     0.867463   -869.89184    2382.5054     972.1771    2038.2392    2434.1344   -295.84174    232.78788    225.73235    291.04078 
  217000       217000    294.45329    101167.02    1354.5044     0.867463   -899.21291    2391.3193    1436.0167    1429.3718    1198.1246   -718.90309   -493.15145    114.07681    294.45329 
  218000       218000     293.8561    101167.02    2044.4722     0.867463   -874.70695    2409.1517    1225.3675    2906.1667    2001.8823   -354.08676   -124.96683   -1410.4885     293.8561 
  219000       219000    292.27086    101167.02    1746.6553     0.867463   -908.43874    2357.7047    1243.1068    2520.6373    1476.2217   -215.73892   -247.58232   -271.58647    292.27086 
  220000       220000    293.08603    101167.02    1610.2895     0.867463   -878.52457    2396.7285    1225.6999    1801.5134    1803.6553   -616.29673   -641.03527    96.728018    293.08603 
  221000       221000      289.656    101167.02    2486.9159     0.867463   -962.29005    2274.6322    1779.8851    3211.8216    2469.0411   -120.02879    219.04866    347.88396      289.656 
  222000       222000     300.4916    101167.02    1494.5051     0.867463   -905.23163     2452.779    1084.6779    1965.4272    1433.4102   -1244.4768    349.28262    -468.1402     300.4916 
  223000       223000    293.13117    101167.02    2447.5759     0.867463   -862.20443    2413.5531     2101.433    2304.6057    2936.6889   -1176.0589    420.51668   -682.09922    293.13117 
  224000       224000    291.60504    101167.02    1497.3546     0.867463   -878.77625    2379.9266     1168.922    1344.5604    1978.5815   -897.03896   -418.96022     62.31186    291.60504 
  225000       225000    297.22513    101167.02     1059.715     0.867463   -977.18714    2344.3206    469.77826    666.86191     2042.505   -54.628601   -67.108831   -104.07235    297.22513 
  226000       226000    292.26984    101167.02    1753.8529     0.867463    -949.6427    2316.4894    1608.8569    2243.6119    1409.0897   -380.45888   -100.37078     390.5232    292.26984 
  227000       227000    298.20878    101167.02    970.18799     0.867463   -952.32578    2380.1742    295.71349    585.89324    2028.9572   -761.66823   -431.75229    288.52481    298.20878 
  228000       228000    289.41374    101167.02    1511.0542     0.867463   -938.87379    2295.3412    775.93331    790.61312     2966.616   -1145.2094    17.206778   -167.77635    289.41374 
  229000       229000     288.8324    101167.02    331.41175     0.867463   -841.74399    2385.9745    217.20499     1069.888   -292.85777   -604.95267    455.76422    320.15986     288.8324 
  230000       230000    291.44083    101167.02    1659.8958     0.867463   -923.77167    2333.0962    1080.2309    2033.7932    1865.6633   -596.16646    594.26936   -155.50479    291.44083 
  231000       231000    297.17603    101167.02    1484.6984     0.867463   -926.54051    2394.4185    1325.1617    1557.3283    1571.6052   -507.77024   -404.58876   -12.021588    297.17603 
  232000       232000    289.05896    101167.02    574.09549     0.867463   -911.71474    2318.5356    166.05519     30.06056    1526.1707    -302.9251    514.82368    337.40278    289.05896 
  233000       233000    288.23138    101167.02    761.13429     0.867463   -990.75018    2230.2519   -98.834903    599.92299    1782.3148    -778.5184   -82.484606    382.65095    288.23138 
  234000       234000    293.47161    101167.02    1487.1339     0.867463   -896.14057    2383.4214    1151.9397    1765.0731    1544.3889   -317.00706    425.02872    216.11572    293.47161 
  235000       235000    291.85108    101167.02    1454.9469     0.867463   -974.07028    2287.3821    1388.5498    1923.7147    1052.5763   -630.28061   -50.544511   -93.753863    291.85108 
  236000       236000    297.17689    101167.02    1888.6902     0.867463   -824.23944    2496.7292    1511.5271     1718.162    2436.3815   -369.88488    464.81598   -323.37517    297.17689 
  237000       237000    284.95172    101167.02    1550.7133     0.867463   -932.92265     2251.429     810.0589    1082.3486    2759.7324   -503.40977    808.02274    4.6455578    284.95172 
  238000       238000    297.44863    101167.02    1974.1175     0.867463   -879.28888    2444.7165    1359.2604    1436.0406    3127.0514   -344.13744   -172.30429   -659.68036    297.44863 
  239000       239000    284.11578    101167.02    1006.6988     0.867463   -901.10025    2273.9097    627.77633     1063.389    1328.9311   -934.83507    600.99986    604.58219    284.11578 
  240000       240000    296.60719    101167.02    1303.3655     0.867463   -899.59743    2415.0047    845.24969    1848.5108    1216.3361   -247.96505    231.25324   -133.40478    296.60719 
  241000       241000    293.53335    101167.02    1842.5672     0.867463   -900.04644    2380.2054    1204.8818    2065.1616    2257.6583   -1097.1811    342.56557   -419.64641    293.53335 
  242000       242000    291.94737    101167.02     2661.136     0.867463   -933.21213    2329.3164    2335.6836    3322.3222    2325.4022   -414.27815   -418.11834    -263.7548    291.94737 
  243000       243000    295.74629    101167.02    673.20923     0.867463   -868.00594    2436.9757    238.84592    809.56119    971.22058   -1060.8193     4.778912    759.62761    295.74629 
  244000       244000    290.13022    101167.02    1098.6176     0.867463    -1008.032    2234.1897   -245.22132    2088.3312    1452.7427   -516.50245    13.073493    73.718612    290.13022 
  245000       245000     301.1615    101167.02    2124.7264     0.867463   -916.61303    2448.8839    1428.0629    2212.1099    2734.0063   -935.82937    102.53665   -343.90036     301.1615 
  246000       246000    289.42281    101167.02    2060.2326     0.867463   -901.88098    2332.4353    2563.7126     1011.521    2605.4642   -870.70634    114.08677   -34.954763    289.42281 
  247000       247000     292.7039    101167.02    1024.5381     0.867463   -942.46674     2328.516    1311.3467    1185.3153    576.95223   -475.22595    200.33164   -496.43405     292.7039 
  248000       248000    294.54099    101167.02     1765.897     0.867463   -889.06831     2402.444    1303.3914    2299.8699    1694.4296   -94.323597    584.50504   -466.94063    294.54099 
  249000       249000     294.4022    101167.02    737.55177     0.867463   -872.29356    2417.6678    619.81351     78.90423    1513.9376   -702.59117   -202.72423   -450.97234     294.4022 
  250000       250000    286.25152    101167.02    1294.9377     0.867463   -931.62216    2267.2549    712.96641    1331.7588    1840.0879   -515.49958    518.96774     428.1396    286.25152 
  251000       251000     291.0826    101167.02     846.7086     0.867463   -895.03035    2357.8342    1027.4222    508.05509    1004.6485   -945.40971   -186.75991   -288.65503     291.0826 
  252000       252000    290.01814    101167.02    1258.5408     0.867463   -958.34389    2282.6253     543.8246    1224.4149     2007.383   -613.83303    337.45073   -172.79404    290.01814 
  253000       253000    293.35495    101167.02    1851.4741     0.867463   -909.44383    2368.8144     1811.001    1873.2659    1870.1553   -321.03551   -739.10158   -171.15801    293.35495 
  254000       254000    294.24131    101167.02    1770.5102     0.867463   -921.14525    2367.0181    1142.0319    2105.0995    2064.3991    -417.4543   -343.16845    544.71523    294.24131 
  255000       255000    297.67927    101167.02    1391.4659     0.867463    -900.4954    2426.0874    1269.9963    1782.6275    1121.7739   -700.53071    828.51003    823.24392    297.67927 
  256000       256000    288.44482    101167.02    1245.3508     0.867463   -1004.7038    2218.6834    1597.0781    367.92859    1771.0456    -708.4138    253.18624    706.16697    288.44482 
  257000       257000     299.0287    101167.02    880.85477     0.867463   -872.24283    2469.4199   -410.36412    1513.0952    1539.8332   -81.741015   -589.92986    620.71534     299.0287 
  258000       258000    283.85606    101167.02    745.49792     0.867463   -902.25989    2269.8478    773.12543     344.1455    1119.2228   -915.25335    -439.6544    382.49466    283.85606 
  259000       259000    296.05037    101167.02    1508.2339     0.867463   -933.15714    2375.2225    1230.7816    1729.4331    1564.4869   -1025.9912   -31.070906   -765.30299    296.05037 
  260000       260000     296.8077    101167.02    1347.1124     0.867463   -957.29381    2359.5491    1418.9042    904.20958    1718.2233   -645.58928   -324.62329   -832.13325     296.8077 
  261000       261000    291.03568    101167.02    750.39643     0.867463   -954.39078    2297.9495   -321.80114    1490.9645     1082.026   -453.73933    273.98982    324.83249    291.03568 
  262000       262000    295.65008    101167.02    1958.7953     0.867463   -919.36556    2384.5409    2200.9783    1598.6222    2076.7855   -285.17392    304.06208    659.64862    295.65008 
  263000       263000    288.24162    101167.02    1715.3472     0.867463   -914.97033    2306.1461    1142.1612    1768.2633    2235.6171   -641.98748   -450.66575   -874.14868    288.24162 
  264000       264000    288.04659    101167.02    1274.3399     0.867463   -822.76417    2396.1729    718.05614    1874.3159    1230.6477    -862.8292   -130.15142    744.97427    288.04659 
  265000       265000    288.99531    101167.02    1461.8112     0.867463   -847.70185    2381.8372    1715.9801    1515.6786    1153.7749    241.46702   -602.63379   -432.26833    288.99531 
  266000       266000     293.7746    101167.02    1470.8744     0.867463   -952.23031    2330.7176    1325.7869    1513.6294    1573.2069   -747.34922    186.81439    878.99538     293.7746 
  267000       267000    295.54529    101167.02    2097.0144     0.867463   -969.34034    2333.3951    1092.4557    2261.7709    2936.8167   -1025.7496   -155.09332   -273.57799    295.54529 
  268000       268000     296.9257    101167.02    1492.4731     0.867463   -918.14241    2400.0191    1314.1914    1933.3794    1229.8484   -670.29501    230.72301   -20.446823     296.9257 
  269000       269000    295.06173    101167.02     1084.835     0.867463   -928.50885    2368.8227      775.249    716.91039    1762.3455   -308.64586   -143.48906    102.58934    295.06173 
  270000       270000    298.94857    101167.02    2114.2454     0.867463   -1047.0188    2293.7484    2089.5425    2359.5851    1893.6085   -201.60901   -485.24268   -359.57545    298.94857 
  271000       271000    293.08736    101167.02    1207.3986     0.867463   -896.43362    2378.8343    669.04459    1485.2974    1467.8539   -1239.1958   -39.014876   -618.86269    293.08736 
  272000       272000     299.0971    101167.02    1658.7485     0.867463   -856.25036    2486.1767    2144.4118    1677.3554    1154.4785   -218.16947    364.06204    114.94017     299.0971 
  273000       273000    293.62234    101167.02    1703.9922     0.867463   -938.33186    2342.9145    1404.4367    1420.9169    2286.6231   -499.49258    210.91911   -499.05201    293.62234 
  274000       274000    291.76188    101167.02     834.4928     0.867463   -1004.5164    2255.9392    400.49256    888.41536    1214.5705   -1025.6977    723.47039    143.16139    291.76188 
  275000       275000    293.45193    101167.02     1582.197     0.867463   -960.54091    2318.8011    2224.5032    1689.6462    832.44162    -311.3313    631.90806     97.72813    293.45193 
  276000       276000    294.48492    101167.02    1954.7778     0.867463    -961.4357    2329.4501    1705.3654    2108.8391     2050.129   -190.32629   -122.61463    291.44909    294.48492 
  277000       277000    288.88298    101167.02    1349.6983     0.867463   -935.86413    2292.4196    1969.1305    1590.2037    489.76066   -1082.3507   -391.05361    185.16835    288.88298 
  278000       278000     293.0323    101167.02    1244.9662     0.867463   -942.02039    2332.6322    862.21054    1902.5673    970.12073   -921.26409    635.24122   -245.82374     293.0323 
  279000       279000    293.70555    101167.02    1679.2083     0.867463   -840.27364    2441.9025     28.97235    2577.1253    2431.5272   -372.63138    722.97642    103.65781    293.70555 
  280000       280000    292.44518    101167.02    1841.1604     0.867463   -943.19065    2324.9009    1267.5573    2500.1476    1755.7761    -443.4888    368.67654   -112.27638    292.44518 
  281000       281000    292.83532    101167.02    1344.3841     0.867463   -1047.6042    2224.8471    1478.6861    1609.2083    945.25794   -109.05292   -271.06027   -219.31033    292.83532 
  282000       282000    294.30039    101167.02    2078.4469     0.867463   -930.35597    2358.4676    1390.1573    2893.1024     1952.081   -230.32783   -74.019616   -80.776231    294.30039 
  283000       283000    291.71695    101167.02    1604.4907     0.867463    -912.1209    2347.8326    1469.6181    1382.0333    1961.8207   -401.60269    371.41704    394.79626    291.71695 
  284000       284000    289.39432    101167.02    1721.0666     0.867463   -938.04605    2295.9519    1866.9147    2114.3401     1181.945   -512.47323    256.48064   -488.46636    289.39432 
  285000       285000    301.49664    101167.02    1047.8191     0.867463   -870.76729    2498.4749    1412.4898    935.04415    795.92321   -420.85085   -95.787652    244.30055    301.49664 
  286000       286000     296.1321    101167.02    1515.3695     0.867463   -992.72478    2316.5683    1807.5061    1233.7658    1504.8366   -925.00527   -408.58565   -422.43297     296.1321 
  287000       287000    294.37795    101167.02    864.46494     0.867463   -947.09636     2342.594    150.94392    895.36878    1547.0821   -399.62628    621.18693     193.5084    294.37795 
  288000       288000    294.90708    101167.02     1181.724     0.867463   -1016.8827    2278.7207    1033.3702    1542.6696    969.13221   -247.42122    159.16813   -183.20409    294.90708 
  289000       289000    293.15521    101167.02    1188.6457     0.867463   -990.21835    2285.8078    955.26549    1801.9601    808.71164    -498.3734   -201.75721   -422.70304    293.15521 
  290000       290000     296.8417    101167.02    1604.4964     0.867463    -1018.449    2298.7739    2000.8555    1430.9169    1381.7167    -495.2061   -628.45054    512.47697     296.8417 
  291000       291000     290.1534    101167.02    1654.9956     0.867463   -1022.3289    2220.1519    1260.1361    2049.7701    1655.0807   -767.64613     61.70001   -222.61015     290.1534 
  292000       292000    296.49262    101167.02    1781.2183     0.867463   -908.44184      2404.88    1175.4891    2732.5375    1435.6282   -405.96709   -440.23652   -106.49015    296.49262 
  293000       293000    291.43932    101167.02    1248.5168     0.867463   -1060.0214    2196.8296   -4.9492603    1907.0251    1843.4745    -295.7948     -511.276   -530.26227    291.43932 
  294000       294000    297.95567    101167.02    1550.2569     0.867463   -871.44566    2458.2258    790.04407    2027.5967    1833.1299   -776.64213    189.06335    291.06787    297.95567 
  295000       295000    288.46443    101167.02    1044.7319     0.867463   -961.22738     2262.379    142.38314     2318.049    673.76346   -81.079528    619.67274   -93.850392    288.46443 
  296000       296000    298.56858    101167.02    1380.4645     0.867463   -924.09681    2412.4241    1064.5426    1222.7082    1854.1426   -787.53911   -257.14513    -140.0067    298.56858 
  297000       297000    286.09507    101167.02    1419.0033     0.867463   -897.88983    2299.2389    1004.0354    1842.6127    1410.3619   -469.54517    312.12054    -518.8768    286.09507 
  298000       298000    294.28723    101167.02    598.94286     0.867463   -902.84244    2385.8341    416.66512    865.30875     514.8547   -639.02158    711.42301    572.37425    294.28723 
  299000       299000    290.16892    101167.02    1338.8035     0.867463   -1019.5356    2223.1186    1155.9699    1605.8336    1254.6068    -715.7407    -2.485003   -383.56755    290.16892 
  300000       300000    291.75858    101167.02    981.14134     0.867463   -913.31114    2347.1076    137.80772    779.53204    2026.0843   -943.88006   -257.51654   -278.31405    291.75858 
  301000       301000    289.42029    101167.02    1367.9189     0.867463    -959.0346    2275.2536    1746.1205    1340.0775    1017.5586   -249.08217    190.67769   -31.694687    289.42029 
  302000       302000    295.44827    101167.02    444.06484     0.867463   -949.90733    2351.7439    -203.6911    461.24449    1074.6411   -482.90225    -98.07233   -419.76519    295.44827 
  303000       303000    290.98204    101167.02    600.06952     0.867463   -915.60522    2336.1356   -232.42856    843.01685    1189.6203   -646.51902   -602.13373    74.842716    290.98204 
  304000       304000    294.29889    101167.02    760.46945     0.867463   -934.99556    2353.8113    905.18711   -204.54463    1580.7659   -1149.3933    51.162752   -426.02166    294.29889 
  305000       305000    292.56473    101167.02     1534.496     0.867463   -915.86511    2353.5624    1327.9551    1660.1113    1615.4215   -834.83024    456.96787    478.78675    292.56473 
  306000       306000    291.92504    101167.02    1230.7166     0.867463     -899.612    2362.6669    130.68377    915.90821    2645.5577    -728.9953   -186.61117   -218.95264    291.92504 
  307000       307000    292.73026    101167.02    1846.7503     0.867463   -921.86091    2349.4164    1068.0947    2727.7296    1744.4266   -431.21321     534.6457    353.65962    292.73026 
  308000       308000    291.62867    101167.02    1168.2622     0.867463   -878.09498     2380.872    909.34917     1205.756    1389.6816    -315.6586   -393.25087    151.26881    291.62867 
  309000       309000    301.14983    101167.02    1723.3597     0.867463   -1024.8874     2340.479    1316.2819    1623.8663    2229.9309   -980.92855    546.26919   -730.87769    301.14983 
  310000       310000    289.24856    101167.02    1060.1317     0.867463   -1021.3715    2210.9976    108.41076     1487.279    1584.7054   -230.51527   -173.09321   -325.10183    289.24856 
  311000       311000    291.23857    101167.02    587.83853     0.867463   -916.84356     2337.764   -3.7177877    923.46704    843.76635   -700.14973    670.84268    52.197642    291.23857 
  312000       312000    298.35425    101167.02    894.86335     0.867463   -937.32324    2396.8024    920.33465    900.60656    863.64884   -230.09057   -597.08527    -580.1149    298.35425 
  313000       313000    292.19054    101167.02    1440.4809     0.867463   -962.76853    2302.4773    1920.3813    1269.3846    1131.6768   -500.37719    461.69789   -206.83256    292.19054 
  314000       314000    291.86046    101167.02    1721.3983     0.867463   -931.91809    2329.6392    1354.4984    2466.9752    1342.7214   -959.97548    146.52199   -113.59146    291.86046 
  315000       315000    292.64462    101167.02    1704.4543     0.867463   -971.93148    2298.3888    2273.5592    1461.7417    1378.0621   -321.81625   -621.02067   -1045.3596    292.64462 
  316000       316000    297.66155    101167.02    756.16625     0.867463   -934.41846    2391.9663     996.2866    844.50607    427.70608   -102.30894   -194.02711   -305.28602    297.66155 
  317000       317000    293.68139    101167.02    2032.6131     0.867463   -928.18784    2353.7183    1583.7762    1985.1958    2528.8673    -765.4976    676.01847    96.213056    293.68139 
  318000       318000    294.06226    101167.02    1658.5178     0.867463   -907.37307    2378.7895    1405.7758     2408.355    1161.4224    -466.6475    256.58465   -372.64878    294.06226 
  319000       319000     293.3571    101167.02    1028.9017     0.867463   -952.62151    2325.6608    622.43093    612.03042    1852.2437   -712.87142    574.04807   -258.27423     293.3571 
  320000       320000    295.61791    101167.02     1555.605     0.867463   -932.53961    2371.0074    186.56707    2383.6372    2096.6107   -361.34613   -205.65411    236.84321    295.61791 
  321000       321000    286.55162    101167.02    666.67767     0.867463   -932.07587    2270.1548    550.92514    762.73831    686.36957   -62.978886    34.629914    6.3908915    286.55162 
  322000       322000    294.35907    101167.02    844.08109     0.867463    -874.2546    2415.2248    1225.4887    467.63257    839.12196   -366.31738     291.0353   -310.65346    294.35907 
  323000       323000    294.07931    101167.02    1266.9049     0.867463   -944.02378    2342.3293     758.9954    806.44004    2235.2791   -941.40843   -111.10317    173.43134    294.07931 
  324000       324000    299.11752    101167.02    819.48026     0.867463   -969.61424    2373.0411    257.64608    1594.8989    605.89579   -1082.2233    -808.3723   -229.80809    299.11752 
  325000       325000    299.39544    101167.02    1598.7489     0.867463   -964.09313    2381.6679    304.63826    2192.5286      2299.08    -307.8447   -161.42748    192.70309    299.39544 
  326000       326000    290.83722    101167.02    1197.1387     0.867463   -946.60279    2303.5197    596.20878    1628.8743    1366.3331   -1091.5777   -354.09424   -362.94492    290.83722 
  327000       327000     294.4589    101167.02    288.62855     0.867463   -942.78705    2347.8079    123.38745    563.39069     179.1075    -630.3488    210.29618    139.57588     294.4589 
  328000       328000     286.4156    101167.02    982.20362     0.867463   -953.03167     2247.679    1132.8399    1362.9876     450.7833   -774.82653   -348.13948   -430.25327     286.4156 
  329000       329000    297.40792    101167.02    1156.8195     0.867463    -969.4235    2354.1269   -296.03754    2461.5278    1304.9681   -808.26997     -187.503   -254.93751    297.40792 
  330000       330000    289.52944    101167.02    2037.7692     0.867463   -946.74132    2288.7666    1368.9362    3030.1948    1714.1765   -691.76401     101.6698    839.23589    289.52944 
  331000       331000    292.28913    101167.02    1318.5189     0.867463   -939.48561     2326.862    972.54051    1656.7995    1326.2168   -860.35755    59.932451    182.74288    292.28913 
  332000       332000    294.89267    101167.02    2219.7127     0.867463   -899.51244    2395.9299    1903.5422    2369.3809     2386.215   -556.29019    203.90797    35.970751    294.89267 
  333000       333000    292.69928    101167.02    819.03483     0.867463    -901.4799    2369.4512    203.93321    524.02038    1729.1509   -679.78601    359.36459    228.59943    292.69928 
  334000       334000    294.88954    101167.02    920.83976     0.867463   -938.71974    2356.6877    1121.8224    1004.5567    636.14014    -56.58417    427.53462    485.37595    294.88954 
  335000       335000    293.44863    101167.02    1683.8126     0.867463   -863.37303    2415.9321    1659.3034    1083.2043    2308.9302    114.36219    84.648535   -289.28741    293.44863 
  336000       336000    286.75434    101167.02    1949.2604     0.867463   -935.09672    2269.3994    1923.2284     2199.546    1725.0066   -641.38632    235.01613   -99.267511    286.75434 
  337000       337000      290.664    101167.02    2312.9216     0.867463   -882.78416    2365.4026    2259.9748    1835.5096    2843.2804   -456.99303   -784.15778    489.82595      290.664 
  338000       338000    292.17427    101167.02    2070.1603     0.867463   -931.70967    2333.3544     1779.878    1329.1398    3101.4631   -493.34835    116.23216   -231.97776    292.17427 
  339000       339000    297.32381    101167.02    1301.0059     0.867463   -941.33337    2381.2771    1321.4644    1267.9333    1313.6201   -689.30279   -125.59119   -290.13295    297.32381 
  340000       340000    292.03209    101167.02    1849.8887     0.867463   -981.07755    2282.3977    1937.9043    2483.8946    1127.8671   -173.00345   -596.89223   -300.75469    292.03209 
  341000       341000    296.48595    101167.02    2418.8852     0.867463   -875.42532     2437.822    2176.1028    2547.9528       2532.6   -200.12612     35.26079    152.61549    296.48595 
  342000       342000    297.73135    101167.02    1065.9155     0.867463   -982.67625    2344.4885    1796.0776    818.94855    582.72034    -508.2067   -162.33743    150.51599    297.73135 
  343000       343000    295.88304    101167.02    1192.7123     0.867463   -918.41768    2388.0921    50.800344    2356.3989    1170.9376   -346.42057   -90.257547   -826.15987    295.88304 
  344000       344000    291.73441    101167.02    1073.7014     0.867463    -945.1498    2314.9989   -2.8694866    1232.9949    1990.9787   -677.62695    339.12814     172.8645    291.73441 
  345000       345000    296.06414    101167.02    1561.9687     0.867463   -895.71509    2412.8186    1275.8622    2282.9777    1127.0661    255.30821   -457.46749   -991.42862    296.06414 
  346000       346000    293.48332    101167.02    1449.9505     0.867463   -976.41044    2303.2824    1469.6328    1854.2433    1025.9755   -410.13144    6.3149468   -212.40617    293.48332 
  347000       347000    295.98865    101167.02    1485.1401     0.867463   -929.43856    2378.2515    831.74914    2148.7784    1474.8928   -811.72871    38.536774   -300.21403    295.98865 
  348000       348000    295.97942    101167.02      427.831     0.867463   -928.41207    2379.1748    416.13617    500.08933    367.26749   -30.150494   -1.5062929   -432.95853    295.97942 
  349000       349000    292.45013    101167.02    1302.9601     0.867463   -869.41085     2398.736    680.51637    2150.2766    1078.0872   -933.93082   -111.77286   -123.60156    292.45013 
  350000       350000    285.52314    101167.02      1292.73     0.867463   -926.66609    2264.0713   -21.759564    1532.5579    2367.3918   -1231.3444    203.85747    596.01803    285.52314 
  351000       351000    295.16815    101167.02    1931.9935     0.867463   -920.61317    2377.9077    1758.3945    1744.1614    2293.4247    -951.7502   -237.63937    604.56188    295.16815 
  352000       352000     297.4298    101167.02     1056.358     0.867463   -907.47299    2416.3219    591.37714    1497.8261    1079.8709   -630.30825   -94.394862   -236.10621     297.4298 
  353000       353000    294.06638    101167.02    1703.3135     0.867463   -885.32316    2400.8853    1578.3416    1637.5162    1894.0828   -716.44258   -445.41405     355.2041    294.06638 
  354000       354000     300.4922    101167.02    837.28787     0.867463    -914.9493    2443.0681    924.81942    288.01912    1299.0251   -1167.1071    522.36897    683.46235     300.4922 
  355000       355000    290.10492    101167.02    1253.0151     0.867463   -976.54719    2265.3917     834.7695    1376.7889    1547.4867   -1153.8847    -123.4664    471.16926    290.10492 
  356000       356000    297.61853    101167.02    1542.5316     0.867463   -904.62227    2421.2818    2744.2361    1394.0008    489.35786   -234.24392   -106.80502   -180.57175    297.61853 
  357000       357000    291.17382    101167.02     2153.742     0.867463   -922.81291    2331.0711    1969.7907    2033.1479    2458.2875    -664.9808   -510.38644   -207.57689    291.17382 
  358000       358000    290.70055    101167.02    1502.5099     0.867463   -931.23345    2317.3617    1158.5005    953.65978    2395.3694    13.844026    305.25948   -149.64514    290.70055 
  359000       359000    290.66629    101167.02    2028.4164     0.867463   -1008.2564     2239.956    2194.0443    1994.1422    1897.0628    202.14518   -264.94029    616.86424    290.66629 
  360000       360000    295.16703    101167.02    1708.6805     0.867463   -891.34992    2407.1584    1809.3709    1174.1016    2142.5689   -284.91989    -173.5655   -35.685995    295.16703 
  361000       361000    294.68735    101167.02    1460.1197     0.867463   -1025.3373    2267.8106    1658.9864    2074.9752    646.39739   -545.33944   -135.62281    510.29301    294.68735 
  362000       362000    293.45487    101167.02    1099.5331     0.867463   -919.77642    2359.5985    1253.3437    944.12413    1101.1314   -706.59624    228.99669   -124.33028    293.45487 
  363000       363000      296.698    101167.02    1787.2922     0.867463   -989.91386    2325.7032    1252.3557    2086.0816    2023.4392   -999.19126   -322.17667   -128.55669      296.698 
  364000       364000    295.55694    101167.02    1056.6561     0.867463   -883.99698    2418.8686    542.62757    1460.5811    1166.7595   -341.75919   -160.79873    287.44942    295.55694 
  365000       365000    290.95759    101167.02     1258.651     0.867463   -911.71239    2339.7552     150.1282    2212.3649    1413.4598   -383.01579    271.20765    644.26931    290.95759 
  366000       366000    295.95887    101167.02    647.18343     0.867463   -968.83176    2338.5254    623.25189   -1.2428396    1319.5413   -444.30414    19.069843    -218.9684    295.95887 
  367000       367000    297.28596    101167.02    1586.9748     0.867463   -959.96883    2362.2187    1263.4959    2136.2357    1361.1926   -1045.4917    406.03724    894.91727    297.28596 
  368000       368000    303.68007    101167.02    1650.4969     0.867463   -921.22341    2472.4186    1679.3608    1871.9084    1400.2215   -728.27767    156.43275   -534.42677    303.68007 
  369000       369000     287.2038    101167.02    1538.8715     0.867463   -979.01093    2230.5078    1182.9233    1797.3062    1636.3849   -257.50906     -250.505    81.729062     287.2038 
  370000       370000    302.97721    101167.02      1022.82     0.867463   -872.39599    2513.3916    1018.3322    945.89407    1104.2338   -193.12615   -137.73567   -121.71605    302.97721 
  371000       371000    294.23491    101167.02    556.39268     0.867463   -862.84127    2425.2506    113.83163    1126.7985    428.54791   -1490.7833     820.0438   -14.840136    294.23491 
  372000       372000    289.43774    101167.02    2008.4717     0.867463   -952.22013    2282.2631    1572.3602    1255.2525    3197.8024    -739.7313   -152.01196    27.131481    289.43774 
  373000       373000    295.13024    101167.02    1320.3604     0.867463    -918.0206    2380.0767    1666.5529    774.86476    1519.6636   -816.28531   -530.87796   -26.286917    295.13024 
  374000       374000    298.70242    101167.02    1923.0311     0.867463   -912.90464    2425.1119    2269.5522    1928.4646    1571.0764   -458.59154    127.71789    261.36397    298.70242 
  375000       375000       294.93    101167.02    1048.8285     0.867463   -883.17565    2412.6839    691.83089     1216.371    1238.2835   -289.33907    234.59793   -638.38938       294.93 
  376000       376000    287.16301    101167.02    1157.2909     0.867463   -917.08758    2291.9753   -290.23172    2174.1783    1587.9261    -437.9132    689.86972    442.65474    287.16301 
  377000       377000    293.15616    101167.02    623.15743     0.867463   -910.42864    2365.6081   -258.48398    924.17723     1203.779   -1043.8197    598.83813    63.083899    293.15616 
  378000       378000     294.5787    101167.02    995.26106     0.867463   -924.25333    2367.6804    345.66469     1381.127    1258.9915   -987.02512    201.51969   -200.70015     294.5787 
  379000       379000     295.7298    101167.02    1232.6446     0.867463   -961.86474    2342.9326    1917.4585    837.26021    943.21503  0.099119628    -628.9181   -325.48529     295.7298 
  380000       380000    298.15287    101167.02    1429.4974     0.867463   -881.32825     2450.547    1559.5815    1780.6974    948.21324   -418.38676    140.28139    19.458905    298.15287 
  381000       381000    293.76073    101167.02    768.98376     0.867463   -956.80392    2325.9889    604.04673    1014.9351    687.96942   -1212.9569   -77.052785     1056.786    293.76073 
  382000       382000    297.49504    101167.02    946.66545     0.867463   -863.52428    2460.9997    111.51241    1808.1673    920.31664   -519.99454    85.618966    884.80378    297.49504 
  383000       383000    291.76365    101167.02    2120.2517     0.867463   -920.24304    2340.2323    1777.9556     2523.454    2059.3457   -80.444005    277.24937   -465.70143    291.76365 
  384000       384000    287.37626    101167.02    947.09072     0.867463   -958.71928    2252.7267    502.15569    1492.0024    847.11405   -436.02853    18.659041   -900.40708    287.37626 
  385000       385000    298.03504    101167.02    1703.7646     0.867463   -876.52311    2454.0354    1170.1937    2612.4106    1328.6896   -420.47836    18.596334    178.93511    298.03504 
  386000       386000    293.38863    101167.02    925.09877     0.867463   -921.60545    2357.0292    599.00324    1448.2797    728.01341   -927.11216    325.37669    -597.2902    293.38863 
  387000       387000    291.02441    101167.02    1812.5671     0.867463   -856.88155    2395.3328    1776.5313    2201.1003    1460.0697    211.29805   -127.22727     707.5491    291.02441 
  388000       388000    289.91544    101167.02    1989.1239     0.867463   -870.11188    2369.7097    732.93931     2212.999    3021.4334   -1314.2488    589.01698   -105.30259    289.91544 
  389000       389000    295.46418    101167.02    1989.5759     0.867463   -894.06893      2407.76    1596.3152    2484.7516    1887.6609   -252.27147    494.02126    840.32435    295.46418 
  390000       390000    289.63675    101167.02    1698.0334     0.867463   -895.21517     2341.492    753.37741    2049.7974    2290.9253   -332.77787    493.98765   -734.36064    289.63675 
  391000       391000    297.29321    101167.02    534.53513     0.867463   -882.18202    2440.0865    338.10016    1041.8061     223.6991    -401.5954    389.35401    179.38701    297.29321 
  392000       392000    293.98999    101167.02    1472.6532     0.867463   -928.82589     2356.529    1383.5048     1771.292    1263.1628   -336.62902    16.756466    258.53299    293.98999 
  393000       393000    293.60683    101167.02    1406.1769     0.867463   -897.93187    2383.1412    880.02928    2157.0017    1181.4999   -712.60493    144.51609   -198.84891    293.60683 
  394000       394000    290.81421    101167.02    2302.8359     0.867463   -844.03238    2405.8329    1962.3444    2517.7089    2428.4543   -556.90757   -101.01756    1206.0575    290.81421 
  395000       395000    290.95729    101167.02    1375.9324     0.867463    -930.5767    2320.8875     111.7573    1837.7394    2178.3004   -11.061501   -571.25562   -113.82716    290.95729 
  396000       396000    297.40738    101167.02    1217.1687     0.867463   -855.10729    2468.4371    1428.1887    1061.7351    1161.5824   -694.17999   -380.29607   -462.57434    297.40738 
  397000       397000    287.43123    101167.02    1829.4137     0.867463     -932.171    2279.8893    2046.6931    1338.3266    2103.2213   -382.89445    90.476027   -39.086245    287.43123 
  398000       398000    291.32282    101167.02    1400.9371     0.867463   -927.23537    2328.3137     1326.196    628.06888    2248.5465   -241.35508     538.7902   -670.53772    291.32282 
  399000       399000    296.26564    101167.02    1567.4383     0.867463   -904.49812    2406.2872     1925.158     1679.255    1097.9021   -283.98691   -445.66318    583.76353    296.26564 
  400000       400000    290.54592    101167.02    2035.4008     0.867463   -908.46035    2338.4068    1887.9415    1875.7559    2342.5051   -971.53554   -27.456164    777.03746    290.54592 
  401000       401000    296.70485    101167.02    667.63321     0.867463   -1000.1612    2315.5323   -3.7956366     1271.574    735.12124   -765.10921   -257.80938   -323.67192    296.70485 
  402000       402000    295.41054    101167.02    1259.1886     0.867463   -849.05936    2452.1702    786.36575    975.88845    2015.3115   -364.22517   -191.27945    523.64149    295.41054 
  403000       403000     283.8194    101167.02    2114.0095     0.867463    -934.1942    2237.5037    1730.6941    2295.2097    2316.1247    -139.8317   -135.60358    674.93558     283.8194 
  404000       404000    296.46955    101167.02    1483.1425     0.867463   -884.51991    2428.5442    1588.0861     797.4809    2063.8605   -356.82856    294.33079   -514.47816    296.46955 
  405000       405000    294.42965    101167.02    794.30979     0.867463   -926.82955    2363.4385    514.20498    1027.9101     840.8143   -241.20164    78.157771    198.05907    294.42965 
  406000       406000    301.69534    101167.02     1053.298     0.867463   -922.01986    2449.4428    1325.4486    1043.9371     790.5084   -252.30769   -172.46194   -315.23917    301.69534 
  407000       407000    295.83872    101167.02    1882.3959     0.867463   -1008.9516    2297.0629     1930.377    2008.0684    1708.7423    -285.5841    291.93865   -553.34908    295.83872 
  408000       408000    290.51616    101167.02    651.52727     0.867463   -890.19262     2356.342   -454.89434    1429.9423    979.53382    -924.1173    352.04723   -136.63156    290.51616 
  409000       409000    292.28209    101167.02    1988.5464     0.867463   -974.21357    2292.0554    2253.5216    1741.5393    1970.5784   -621.87923     168.3009   -166.59407    292.28209 
  410000       410000    295.52007    101167.02     2074.586     0.867463   -974.84165    2327.6119    1927.7845    2565.8628    1730.1107   -375.34657   -123.81136    680.62285    295.52007 
  411000       411000    292.64795    101167.02    1393.5815     0.867463   -929.88727    2340.4703    1578.7553    1915.5073     686.4818    -271.9937   -297.86762     677.6968    292.64795 
[...]
10907000     10907000     295.9897    101167.02     865.3167     0.867463   -926.45808    2381.2436    499.83148    1176.3826    919.73602    27.791747   -131.76866   -404.40511    296.40621 
10908000     10908000    293.78093    101167.02    982.81938     0.867463   -787.51121    2495.5074    508.44695    731.28733    1708.7239   -1200.1111    338.80274    379.45623    294.13828 
10909000     10909000    289.82883    101167.02    1117.6853     0.867463    -955.6142    2283.2394    236.65926    1451.8694    1664.5272    -324.3713   -422.28075    176.68246    290.15171 
10910000     10910000    292.69965    101167.02     1312.495     0.867463   -813.85724     2457.078    709.38409    2150.7173    1077.3836   -574.04743   -330.66391    108.75392    293.03802 
10911000     10911000    294.52531    101167.02    1360.8712     0.867463   -766.39292    2524.9442    312.62794    2733.2249    1036.7609   -412.63971   -144.98476   -200.76738    295.09883 
10912000     10912000    289.24321    101167.02    2273.3658     0.867463   -856.93019    2375.3791    1509.0176    2539.2301    2771.8496   -697.23929   -18.942104    13.297755     289.8494 
10913000     10913000    294.62444    101167.02    1355.7817     0.867463   -793.86114    2498.5838     390.4849    1626.4279    2050.4323   -639.52538   -594.20151   -328.43741    295.12675 
10914000     10914000    294.81749    101167.02    1711.7379     0.867463   -895.46587    2399.1364    1328.1081    2067.2329    1739.8726   -582.60251    10.982702    836.33824    295.22477 
10915000     10915000     291.7606    101167.02    1305.1031     0.867463    -865.2915    2395.1498    613.59683    1463.5197    1838.1929   -41.010558   -263.16072     -54.1516    292.33864 
10916000     10916000    297.05579    101167.02    1542.3472     0.867463   -853.63112    2465.9842    1935.2013    1258.0231    1433.8172   -686.60896    160.38959    191.12394    297.43353 
10917000     10917000    285.21063    101167.02    1821.0134     0.867463   -866.37132    2320.8737    1111.4209    2005.4666    2346.1527    307.15881   -547.79768   -219.09725    285.63811 
10918000     10918000    290.47673    101167.02    826.34296     0.867463   -714.96209    2531.1319   -138.12614    1939.4699    677.68516   -272.79803    -554.4648   -369.47797    290.77495 
10919000     10919000     291.9569    101167.02    1781.5449     0.867463   -909.98049    2352.6544    1043.2235    2456.2431    1845.1679   -913.93617   -375.41316   -225.87002    292.40046 
10920000     10920000    300.53786    101167.02    1519.1232     0.867463   -950.00348    2408.5242    1127.4893    2185.0157    1244.8646    -1667.224   -599.98626    243.78058    300.87811 
10921000     10921000    295.18119    101167.02    1145.2755     0.867463   -932.45744    2366.2091    504.42986    2058.9495    872.44695   -147.77985   -22.153862   -272.55289    295.62254 
10922000     10922000    303.91542    101167.02    901.79327     0.867463   -937.67632    2458.5957    991.55804    513.23486    1200.5869   -392.27192      -609.34   -848.47528    304.25618 
10923000     10923000    289.14263    101167.02    1187.6511     0.867463   -824.72348    2406.4618   -123.94811    2826.1696    860.73184   -63.276192   -351.23012   -308.86631    289.65648 
10924000     10924000    294.17621    101167.02    1904.4478     0.867463   -841.10773    2446.3282    2049.2573    1665.3822    1998.7041   -23.063749   -943.92803    628.04225    294.67165 
10925000     10925000    296.77132    101167.02    2346.6142     0.867463   -914.82616    2401.6102    2021.5024    2219.6943    2798.6458   -640.68923   -549.00203     96.63136    297.16349 
10926000     10926000    289.57676    101167.02    1193.0087     0.867463   -875.32025    2360.7165    734.10393    1049.5271     1795.395   -273.91734    228.72333   -1021.7187    289.91823 
10927000     10927000    297.74143    101167.02    1035.0497     0.867463   -931.94751    2395.3299    191.59105    1683.0851    1230.4728   -525.91152    731.32559    541.13728    298.02348 
10928000     10928000      293.888    101167.02    496.59036     0.867463   -779.44803    2504.7671    845.43262    194.89336    449.44508   -567.03429   -499.77562   -66.756313    294.18996 
10929000     10929000    294.33104    101167.02    1347.0776     0.867463   -919.69311     2369.473    1821.1207    1654.6063    565.50581   -277.83897   -5.7707845    364.90008    294.59334 
10930000     10930000    294.52966    101167.02    1869.1485     0.867463   -853.96234    2437.4234    1765.4672    1999.0771    1842.9013   -411.98045    86.381337     195.7148    294.91993 
10931000     10931000    285.70475    101167.02    1756.6279     0.867463   -951.73145    2241.0354    1089.8939    1377.1045    2802.8854   -246.77602   -88.234405   -406.93136    286.32229 
10932000     10932000    304.21562    101167.02    1200.8662     0.867463   -843.48928    2556.1376    562.49311    1550.6598    1489.4456   -1019.0529    258.74013   -64.524766    304.66678 
10933000     10933000    289.67638    101167.02    1569.4322     0.867463   -906.10001    2331.0501    1256.0526    2076.9304    1375.3135   -90.485011    80.745464    123.94804    290.10768 
10934000     10934000    299.09092    101167.02    1487.8068     0.867463   -845.93176    2496.4263     1238.333    1750.4013    1474.6861   -694.41759   -595.11546   -80.904217     299.3631 
10935000     10935000    285.97562    101167.02    1884.8566     0.867463   -958.25147    2237.5423    1708.5975    2063.7933    1882.1791   -383.58052     203.6135   -115.41053    286.37199 
10936000     10936000    292.93873    101167.02    1590.0599     0.867463   -816.77395    2456.8331    1244.0644    1711.0896    1815.0258   -269.30133    15.151434   -333.28457    293.17206 
10937000     10937000    284.05886    101167.02    1821.3367     0.867463   -969.75397    2204.6199    1523.0558    1820.7761     2120.178    45.521369    104.99475    985.78694    284.55416 
10938000     10938000    295.61135    101167.02    1460.3239     0.867463   -856.64291    2446.8308    2057.8585    1221.6709    1101.4423    373.52447    610.62123    619.82282    296.03078 
10939000     10939000    293.35223    101167.02    1075.2845     0.867463   -913.96063    2364.2673    334.18102    1059.8903    1831.7821   -1085.7717   -140.99664   -104.61402    293.79656 
10940000     10940000    288.66621    101167.02    1351.3528     0.867463   -888.24147    2337.6198    959.56451    1328.8381    1765.6559   -394.64332   -273.03962   -137.51701    289.03892 
10941000     10941000    292.46144    101167.02    2132.4645     0.867463   -926.61352    2341.6597    1828.8667    2547.4698    2021.0569   -344.09009   -378.95712   -52.965328    293.07013 
10942000     10942000    300.35721    101167.02    1266.7919     0.867463   -843.21947    2513.2895    1340.0636    1551.1553    909.15686   -876.17183   -677.00553   -30.209363    300.75727 
10943000     10943000    295.38065    101167.02    1449.1613     0.867463   -945.11172    2355.7839    1536.5984    953.29559      1857.59   -463.26181    86.001088    446.86511    295.73067 
10944000     10944000    291.92635    101167.02    1402.9759     0.867463   -882.00112    2380.2924    981.70928    1582.1364    1645.0821   -293.24369   -610.46521    356.83575    292.21378 
10945000     10945000    294.73781    101167.02    918.94694     0.867463   -918.56464    2375.1471    850.38288    1122.2934    784.16454   -914.05039    548.34378   -197.93397    295.21504 
10946000     10946000    291.06886    101167.02    1173.6153     0.867463   -870.97773    2381.7334    1416.4038    1153.3537    951.08827   -306.14099    46.059723   -82.703747    291.57473 
10947000     10947000    296.95155    101167.02    1400.0737     0.867463   -926.46322    2391.9873    659.72051     2025.795    1514.7055   -93.565745    259.57709   -248.39476     297.4116 
10948000     10948000    293.80057    101167.02    710.04811     0.867463   -901.68648    2381.5516    202.69645    649.23719    1278.2107     444.4415    279.88433     33.99949    294.12508 
10949000     10949000    296.13865    101167.02    1116.9861     0.867463   -901.22442    2408.1419    1314.6341    1544.6628     491.6614   -1221.4833    677.42206   -601.00119    296.43803 
10950000     10950000     289.1257    101167.02    1682.6896     0.867463   -913.96316     2317.033    1260.3936    1762.5759    2025.0992   -741.83416    878.62698    -476.4513    289.70778 
10951000     10951000    302.17282    101167.02    994.78986     0.867463   -981.20979    2395.5887    35.259338    2104.4507    844.65954   -1024.0272   -157.22737   -15.739418    302.66033 
10952000     10952000    288.25993    101167.02    1656.4375     0.867463   -933.39804    2287.9231    640.81776    2352.0646      1976.43   -105.38973     81.90804    371.40017    288.58236 
10953000     10953000    289.23673    101167.02    1131.2771     0.867463   -886.26235    2345.9745    720.16782    1368.4675    1305.1961    104.11868   -423.20146   -547.45833    289.72708 
10954000     10954000    298.02053    101167.02    1577.1677     0.867463   -867.49397    2462.9024    1101.3955    1923.9004    1706.2071   -492.91669   -58.773674   -96.413714    298.56133 
10955000     10955000    288.42781    101167.02    1586.7332     0.867463   -932.65777    2290.5394    1655.8499    1254.9779     1849.372   -703.85443    93.941863   -52.999178    288.95592 
10956000     10956000    286.79142    101167.02    1939.4726     0.867463   -869.24303    2335.6674    1982.9844    1330.7876    2504.6458   -186.98151    818.01158   -252.08372    287.15032 
10957000     10957000    295.02945    101167.02    1637.5319     0.867463   -923.07484     2373.896    950.30483    1408.5702    2553.7206   -758.80233    190.11305   -261.84522    295.48038 
10958000     10958000    297.44782    101167.02    1133.6533     0.867463   -1025.9276    2298.0686    506.15837    1415.1303    1479.6712   -1065.9648    342.45805    535.93809    297.85351 
10959000     10959000    290.30681    101167.02     1632.716     0.867463   -845.04125    2399.1539    1584.3233    1350.0657    1963.7591   -778.27909   -528.75719    511.87065    290.76104 
10960000     10960000    289.88927    101167.02    1147.1143     0.867463   -938.09537    2301.4337    1210.2589    1403.7337    827.35011   -1186.1909   -761.80235    150.30149     290.2919 
10961000     10961000     297.4297    101167.02    1237.8144     0.867463   -832.48113    2491.3127    1142.8738     1014.751    1555.8183   -590.02862   -330.73842    131.20938    297.96515 
10962000     10962000    287.31365    101167.02    1954.4248     0.867463   -900.80161    2309.9447    1623.8344    2379.8296    1859.6104   -458.55121    78.600885    446.07688    287.90283 
10963000     10963000    302.31304    101167.02    1744.9239     0.867463    -850.8371    2527.5284    1251.2781    2372.1381    1611.3555   -529.75408   -821.24774    -147.7113    302.70572 
10964000     10964000    289.76762    101167.02    778.34259     0.867463   -963.65812    2274.5115    167.78886    1071.3442    1095.8948    -790.2756   -253.52484    232.22368    290.15847 
10965000     10965000    290.01104    101167.02    1425.9037     0.867463   -840.92629    2399.9636    1233.1634    2872.5502    171.99759   -422.03053    195.24157    -94.71537     290.4561 
10966000     10966000    288.43676    101167.02    1471.6476     0.867463      -942.48    2280.8172    1075.3342    1166.3941    2173.2146   -361.58879   -40.660306   -198.33807    288.79649 
10967000     10967000    298.71667    101167.02    1069.9133     0.867463   -838.93951    2499.2363    1239.8698    1241.2462    728.62386   -1663.5771    444.88301   -283.52286    299.04592 
10968000     10968000    285.52743    101167.02    1111.4286     0.867463   -852.73442    2338.0509     1381.432    1378.4635    574.39047   -575.93478    95.066735   -735.79636    285.84958 
10969000     10969000    287.49479    101167.02    930.52576     0.867463   -834.97288    2377.7977    233.90386    1444.5192    1113.1542   -786.56301   -139.94249   -360.72882    287.99838 
10970000     10970000    289.62173    101167.02    1990.2061     0.867463   -833.00564    2403.5336    1271.6557     2153.875    2545.0878   -1013.6176   -123.12993    102.91539    290.15746 
10971000     10971000    294.96313    101167.02    1950.9208     0.867463   -906.80186    2389.4279    1052.8748    3052.7379    1747.1496   -1097.4476   -446.68648   -251.37999    295.44717 
10972000     10972000    296.97536    101167.02    1630.2608     0.867463   -848.22388    2470.4927    1630.0598     1586.691    1674.0316   -949.68262   -506.51129    227.77969    297.42679 
10973000     10973000     300.2562    101167.02    1315.2667     0.867463   -854.01363    2501.3665    1049.2288    1084.9272     1811.644   -1209.8364    214.00965   -244.52498     300.6107 
10974000     10974000    289.94331    101167.02    1143.6052     0.867463   -883.39193    2356.7411    940.34724    1570.1142    920.35411   -95.078779    257.66335    405.14549    290.31784 
10975000     10975000    295.84149    101167.02    1289.5976     0.867463   -845.54622    2460.4992     1070.458    1821.1856    977.14936   -725.30699     91.27476    504.06176    296.29426 
10976000     10976000    289.91061    101167.02    1593.8207     0.867463   -877.52889    2362.2386    1313.1239    2252.6154    1215.7229    -671.7176   -452.42792   -240.09324    290.53455 
10977000     10977000    293.54897    101167.02    2157.5477     0.867463   -864.04917    2416.3773    1689.6892    2760.3068    2022.6472   -637.29656    635.49126    16.508796    294.05075 
10978000     10978000    289.44731    101167.02    966.38503     0.867463   -903.57794    2331.0123     871.1242    690.67225    1337.3586   -356.62575   -577.06697    578.43057    289.81501 
10979000     10979000    290.35021    101167.02    2112.9033     0.867463   -833.57304    2411.1071    2054.2015    2452.9716    1831.5369   -505.93733    -66.30789    82.243275    290.66583 
10980000     10980000    291.21774    101167.02    1162.2867     0.867463   -830.58569    2423.7892    1808.2829     653.4036    1025.1736   -388.93986    143.37211   -515.06524    291.68135 
10981000     10981000    288.58549    101167.02    1001.3587     0.867463   -894.44879    2330.5105    1027.0064     739.6135    1237.4562   -1145.4977    232.55422   -452.01511    288.94893 
10982000     10982000    297.92371    101167.02    2313.5002     0.867463   -828.08332    2501.2311     1693.385    2746.7358    2500.3798    604.55335   -72.210773    873.60229    298.29021 
10983000     10983000    291.98473    101167.02    1374.5604     0.867463   -913.08749    2349.8585    1068.5093    2104.7063    950.46567    158.99966    39.118112   -178.21836     292.4668 
10984000     10984000    292.32572    101167.02    566.90453     0.867463   -784.10636    2482.6502    619.26346    1180.0894   -98.639268   -720.37513   -123.21267   -280.59411    292.81539 
10985000     10985000    295.57338    101167.02    2304.2213     0.867463   -900.15767    2402.8917    1908.9128    2804.1286    2199.6224   -682.07516    400.95566   -514.13857    295.73508 
10986000     10986000    291.64954    101167.02     1805.627     0.867463    -835.3326    2423.8676    2622.0576    1194.1972    1600.6263   -651.40808    59.296334   -682.76945    291.82517 
10987000     10987000    294.85839    101167.02    1583.1301     0.867463   -942.05915    2353.0002    1409.4364    2185.3443    1154.6097   -15.923174    304.71976   -176.76178    295.26849 
10988000     10988000    294.15154    101167.02    902.46483     0.867463   -890.02462    2397.1356     196.7585    1645.9608    864.67518   -115.36551    -924.3059   -946.34077    294.85358 
10989000     10989000    293.53542    101167.02    2265.3567     0.867463   -882.49917    2397.7758    2399.7036    2167.8317     2228.535   -416.51938     329.5363    176.81884    294.02875 
10990000     10990000    292.17565    101167.02    1627.9608     0.867463   -884.47935    2380.6001    1646.9113    1067.3149     2169.656   -185.63387   -293.27755    518.77823    292.53126 
10991000     10991000    302.03113    101167.02    1720.0829     0.867463   -877.17724    2498.0378    1221.5788    2380.8409    1557.8288    -395.6675   -222.97511    428.90462    302.56893 
10992000     10992000    291.58319    101167.02    964.15075     0.867463   -953.51947    2304.9393   -96.836471    1453.1866    1536.1022   -105.76317   -473.87827    195.55202 Generated thermo.dat
Done!
stress
average  541.32
square average  293850
number of blocks  100
variance  2.86820082978859763107
pxx
average  1166.15
square average  1.36344*10^06
number of blocks  100
variance  5.94489486870878146398
pyy
average  1702.09
square average  2.89861*10^06
number of blocks  100
variance  3.87250810199281571496
pzz
average  1524.69
square average  2.32665*10^06
number of blocks  100
variance  4.43892318023189042887
xx
average  2179.37
square average  4.74965*10^06
number of blocks  100
variance  .18965494984312958869
yy
average  2185.92
square average  4.77827*10^06
number of blocks  100
variance  .48737665106157886192
zz
average  2183.29
square average  4.76677*10^06
number of blocks  100
variance  .38439432878230656851
xx
average  -310.965
square average  100225
number of blocks  100
variance  5.93781843356632116547
yy
average  220.526
square average  50111.2
number of blocks  100
variance  3.84640523606132795104
zz
average  44.9095
square average  3993.08
number of blocks  100
variance  4.44546601578507177322
pressure, stress.strain, ktensor, virial are all concatenated
averages computed will all accumulated data until now
   291.90898 
10993000     10993000    292.98208    101167.02    2088.0129     0.867463   -934.30182    2339.7896     1450.223    1714.7965    3099.0193   -757.56482    -320.7569   -132.23131    293.31586 
10994000     10994000    296.92726    101167.02    1296.5963     0.867463   -875.23595    2442.9431    707.72399    1703.9619     1478.103    -264.4483   -476.53803    938.21288    297.31492 
10995000     10995000    295.08171    101167.02    2219.8343     0.867463   -1006.2989     2291.256    1978.8766    2446.7905    2233.8359   -826.64276    741.79389    710.37406    295.48147 
10996000     10996000    286.08954    101167.02    1510.8579     0.867463   -863.01092     2334.056    1468.4682    1526.9608    1537.1447   -661.32774    364.22766    239.52468     286.4937 
10997000     10997000    293.75717    101167.02    1814.7413     0.867463    -956.9296    2325.8235    1110.8658    2295.3517    2038.0066   -818.33379   -43.654917   -1153.6836    294.15579 
10998000     10998000    292.55966    101167.02    864.82572     0.867463    -899.9657    2369.4051   -293.58102    887.47085    2000.5873   -587.60689   -853.98755    561.80204    293.04951 
10999000     10999000    298.35659    101167.02    2396.6482     0.867463   -827.75099    2506.4009    2092.4548    2142.1633    2955.3266    26.682223    173.96038    585.05529    298.89841 
11000000     11000000    288.44654    101167.02    1108.7502     0.867463    -946.9004    2276.5061    554.60777     1581.144    1190.4987    188.51838    705.98294     -474.917    288.81235 
Loop time of 1528.16 on 48 procs for 5000000 steps with 3750 atoms

Pair  time (%) = 512.929 (33.565)
Bond  time (%) = 106.774 (6.98709)
Neigh time (%) = 274.32 (17.9509)
Comm  time (%) = 448.973 (29.3799)
Outpt time (%) = 0.414571 (0.0271287)
Other time (%) = 184.753 (12.0899)

Nlocal:    78.125 ave 90 max 63 min
Histogram: 1 2 4 2 8 12 6 7 3 3
Nghost:    1317.73 ave 1338 max 1279 min
Histogram: 1 1 2 2 6 3 10 8 9 6
Neighs:    6360 ave 7483 max 5038 min
Histogram: 1 1 4 10 2 9 9 7 2 3

Total # of neighbors = 305280
Ave neighs/atom = 81.408
Ave special neighs/atom = 6.26667
Neighbor list builds = 573911
Dangerous builds = 0
System init for write_restart ...

real	56m2.778s
user	0m0.054s
sys	0m0.061s
