LAMMPS (10 Feb 2015)
Read molecule SQL:
  30 atoms with 4 types
  29 bonds with 1 types
  34 angles with 1 types
  31 dihedrals with 2 types
  6 impropers with 1 types
Reading restart file ...
  restart file = 10 Feb 2015, LAMMPS = 10 Feb 2015
  triclinic box = (112.628 112.628 112.628) to (157.372 157.372 157.372) with tilt (-2.27374e-13 0 0)
  4 by 3 by 4 MPI processor grid
  3750 atoms
  3625 bonds
  4250 angles
  3875 dihedrals
  750 impropers
250 atoms in group endatoms
60 atoms in group samplechains
Resetting global state of Fix shear1 Style nvt/sllod from restart file info
Neighbor list info ...
  1 neighbor list requests
  update every 1 steps, delay 0 steps, check yes
  master list distance cutoff = 10.3
Setting up run ...
Memory usage per processor = 5.71143 Mbytes
Step dummytim Temp Volume Press Density PotEng TotEng Pxx Pyy Pzz Pxy Pyz Pxz myT 
410000000      4.1e+08    292.38439    89584.282    5899.3987     0.979621   -1201.9401    2065.4721    5521.5733    6057.1384    6119.4842   -382.75574    616.38322    583.31731    292.38432 
410010000   4.1001e+08    297.20898    89584.282    6529.1807     0.979621   -1123.9909    2197.3364      6578.94    7357.0273    5651.5747   -400.48698    183.38813    -236.8188    297.21076 
410020000   4.1002e+08    301.61361    89584.282    5912.1957     0.979621   -1168.3738    2202.1755    5852.1589    6500.4361    5383.9922   -1397.7388   -54.956303    436.00057    301.61276 
410030000   4.1003e+08    292.96039    89584.282    6959.0543     0.979621   -1115.8398    2158.0092    5299.8162    7641.2981    7936.0487    470.55033   -160.28724   -599.09568    292.96099 
410040000   4.1004e+08    292.62213    89584.282    7635.8402     0.979621   -1147.9172    2122.1517    6943.4913     9197.736    6766.2934   -500.31047    456.75866    666.62356    292.62168 
410050000   4.1005e+08    301.66407    89584.282    6866.2787     0.979621   -1124.0247    2247.0885    5633.3681    7731.8921    7233.5758   -681.17442   -419.44893    71.626434    301.66469 
410060000   4.1006e+08    295.61429    89584.282    6613.8033     0.979621   -1158.5888    2144.9177      5819.95    7908.2105    6113.2493   -1365.3015   -322.20901   -57.307521    295.61425 
410070000   4.1007e+08    281.16196    89584.282    5817.9282     0.979621   -1142.3449    1999.6561    5731.2535    6419.4841    5303.0469   -878.18953    186.95289    235.86782    281.16296 
410080000   4.1008e+08    289.22858    89584.282    6879.7402     0.979621    -1116.428    2115.7178    5366.3656    7672.6547    7600.2003   -705.19326    762.93263    347.88403    289.22927 
410090000   4.1009e+08    292.69666    89584.282    6961.3506     0.979621   -1187.3819    2083.5199    6043.3153    8235.7739    6604.9626   -619.53817   -95.131837   -224.71329    292.69647 
410100000    4.101e+08    294.65175    89584.282    5865.9398     0.979621   -1135.3595    2157.3906    3976.7547    7543.2796    6077.7853   -470.10857    295.76591     684.3069    294.65258 
410110000   4.1011e+08    297.56182    89584.282    5979.6076     0.979621   -1140.3848    2184.8854    5281.5179    6838.1749      5819.13   -416.56976    284.82898    104.66017    297.56067 
410120000   4.1012e+08    281.91205    89584.282    6439.8127     0.979621   -1132.5601     2017.823    6046.9876    7848.8324    5423.6182   -153.67091   -921.55341    396.37493    281.91163 
410130000   4.1013e+08    296.48281    89584.282    7067.6241     0.979621   -1097.3983    2215.8139    6161.9035    7660.5611    7380.4076   -1050.3701    711.11057   -25.040279    296.48377 
410140000   4.1014e+08    296.53441    89584.282     6275.203     0.979621   -1034.0504    2279.7385    5350.0634    7277.8244    6197.7212    -377.0812   -130.16607   -294.09028    296.53271 
410150000   4.1015e+08    298.10048    89584.282    6351.9261     0.979621   -1136.8178     2194.472    5141.1707     7364.484    6550.1235    -693.1554    950.89679   -107.96554    298.10263 
410160000   4.1016e+08     289.0363    89584.282    6471.7696     0.979621   -1149.5322    2080.4649    5019.7235    7770.1717    6625.4136   -1659.6989     60.62409    394.32789    289.03668 
410170000   4.1017e+08    293.63625    89584.282    6356.8736     0.979621   -1134.3278     2147.074    4843.4055    7360.8409    6866.3742   -158.50868    408.22358   -7.6533055    293.63763 
410180000   4.1018e+08    302.95213    89584.282    5782.2907     0.979621   -1110.2507    2275.2565    4580.5743    6406.7771    6359.5208   -1343.8747    369.74363   -342.30598    302.95099 
410190000   4.1019e+08    291.55636    89584.282     6539.588     0.979621   -1208.9276    2049.2314    5514.6005    6770.7035    7333.4599   -877.12107    337.97824    349.37405     291.5576 
410200000    4.102e+08    294.94923    89584.282    6449.9614     0.979621   -1111.5953    2184.4791    5595.1691    6873.6909    6881.0244   -157.87392    349.52027   -7.0357503    294.94887 
410210000   4.1021e+08    289.49012    89584.282    6146.5327     0.979621   -1183.4631    2051.6055    4033.6583     7595.473    6810.4668   -844.57827   -356.03993    480.29151    289.49108 
410220000   4.1022e+08     298.2547    89584.282    5310.1052     0.979621   -1159.0778    2173.9355    3321.6891    6188.6708    6419.9557    -1182.312    70.663542   -1.9121273    298.25386 
410230000   4.1023e+08    299.45334    89584.282    7059.4268     0.979621   -1135.6377    2210.7704    6254.4761    7821.0174     7102.787    168.95249    298.18268   -133.47466    299.45285 
410240000   4.1024e+08    287.45805    89584.282    6521.7308     0.979621    -1097.928     2114.432    4889.1461    7747.4401    6928.6062   -145.79234    595.63271   -356.15425    287.45809 
410250000   4.1025e+08    291.92877    89584.282    6962.9664     0.979621   -1170.0806      2092.24    6712.0421     7658.876     6517.981    10.995597    -675.7001    551.25358    291.93015 
410260000   4.1026e+08    295.36969    89584.282     6037.963     0.979621    -1150.896    2149.8771    5636.5091    6055.5718    6421.8082   -936.61999    119.15376    568.76993     295.3714 
410270000   4.1027e+08     287.0479    89584.282    6461.4956     0.979621   -1130.1813    2077.5954    5796.6249    6572.7074    7015.1544   -441.74649   -412.30507    327.57951    287.04767 
410280000   4.1028e+08    288.81884    89584.282     6511.676     0.979621   -1144.0902    2083.4768    6631.6909     6426.526    6476.8111   -443.68197    386.26984    522.61465    288.81812 
410290000   4.1029e+08    291.32058    89584.282    6259.3316     0.979621   -1071.5976    2183.9265    5471.7848    8035.5304    5270.6796   -1321.5966    363.72941    623.66652    291.32086 
410300000    4.103e+08    296.54214    89584.282    6689.1859     0.979621   -1211.8814    2101.9939    5584.9474    7266.6551    7215.9552    -665.2892    424.87311    42.389216    296.54181 
410310000   4.1031e+08    288.46882    89584.282    6645.8026     0.979621    -1162.314    2061.3415    5864.9331    7938.6269    6133.8478   -814.48941   -284.98081   -354.18608    288.47115 
410320000   4.1032e+08    298.16209    89584.282      6845.39     0.979621   -1121.2309    2210.7474    5384.2247    6997.3448    8154.6005   -1534.8786    669.03878    484.52527    298.16128 
410330000   4.1033e+08    290.91677    89584.282    6400.8418     0.979621   -1107.0317    2143.9798    5499.1207    7621.1483    6082.2563   -283.95414    1021.6865    872.33594    290.91761 
410340000   4.1034e+08    291.89202    89584.282    5854.1937     0.979621   -1136.8343    2125.0757    4903.5508    7107.5366    5551.4936   -1258.3632    221.60096    126.02124    291.89204 
410350000   4.1035e+08    294.05586    89584.282    6418.1188     0.979621   -1226.4113    2059.6797    5245.8373    7508.8113    6499.7078   -1245.5969    555.01129    275.47517    294.05582 
410360000   4.1036e+08    298.46481    89584.282    7992.3945     0.979621   -1153.4473    2181.9139    7861.8069    8364.7263    7750.6502      265.667    752.21733    460.67229    298.46285 
410370000   4.1037e+08    289.68134    89584.282    6706.5399     0.979621   -1109.5233    2127.6821    5756.5121    8002.7716    6360.3359   -861.78799    46.404706   -549.23137    289.68299 
410380000   4.1038e+08    297.84806    89584.282    6671.3038     0.979621   -1042.9189      2285.55    5602.5587    7495.4477     6915.905   -942.59901    1024.2278    110.44645    297.84987 
410390000   4.1039e+08    296.41881    89584.282    6812.3251     0.979621   -1064.8919    2247.6052    6374.7054    7403.3345    6658.9355   -13.905974    250.55902   -528.33463    296.41955 
410400000    4.104e+08    292.99279    89584.282    6915.2811     0.979621   -1100.6893    2173.5218    5483.6943    8618.6563    6643.4927   -112.90476   -5.1264187    370.15991      292.992 
410410000   4.1041e+08    294.00828    89584.282    7108.3344     0.979621   -1135.1791    2150.3801    6773.8562     7584.936     6966.211     16.40396   -206.06847     130.7208    294.00839 
410420000   4.1042e+08    299.89926    89584.282    6966.0852     0.979621   -1025.9209    2325.4704    7671.3219    6811.5804    6415.3532   -982.42297    794.67273    909.24625    299.89815 
410430000   4.1043e+08    295.36189    89584.282    5851.1855     0.979621   -1172.4768    2128.2091    4999.8869    7227.6693    5326.0003   -1175.5976    234.41505   -383.58853     295.3616 
410440000   4.1044e+08    297.23655    89584.282    6568.3943     0.979621   -1134.7632    2186.8721    4721.0824    8300.7783    6683.3221   -1457.4577   -7.6035693    113.35521    297.23785 
410450000   4.1045e+08    295.43098    89584.282    7317.7069     0.979621   -1183.3551    2118.1029    7152.4053    7678.5433    7122.1722   -6.3981987   -395.08828    576.84715    295.43038 
410460000   4.1046e+08    284.56501    89584.282    6448.5434     0.979621   -1184.0686    1995.9616    5692.8681    6103.4647    7549.2975   -243.56183   -227.76463   -200.76846    284.56532 
410470000   4.1047e+08     288.8779    89584.282    6282.4954     0.979621   -1009.3126    2218.9144    6411.8274    7095.6824    5339.9763   -945.19404    603.47741   -64.595561    288.87843 
410480000   4.1048e+08    293.83924    89584.282    5195.5811     0.979621   -1127.9437    2155.7266    4291.0046    5645.3543    5650.3846   -951.44187    197.60091   -145.08572     293.8395 
410490000   4.1049e+08     300.5631    89584.282    6048.6956     0.979621   -1137.7792    2221.0306    5570.8199     7600.145    4975.1219   -797.45785   -524.21117   -430.70352    300.56434 
410500000    4.105e+08    287.50612    89584.282    6398.4515     0.979621   -1105.3053    2107.5919    5764.7863    6895.4149    6535.1534   -1102.0985   -192.20591    147.22991    287.50706 
410510000   4.1051e+08    291.73437    89584.282    7104.3914     0.979621   -1141.6706    2118.4776    6612.5279    7784.7316    6915.9149   -814.39822    166.54419    -580.5027    291.73327 
410520000   4.1052e+08    294.78171    89584.282    6770.2033     0.979621   -1095.3949    2198.8074    5897.5106    6704.6789    7708.4203   -1039.3649   -777.69389    220.25721    294.78095 
410530000   4.1053e+08    290.76662    89584.282    7305.8725     0.979621   -1178.2197    2071.1138    6278.3328    8389.8471    7249.4377   -622.68423    15.124492   -326.95861    290.76518 
410540000   4.1054e+08    295.49731    89584.282    7088.7975     0.979621   -1112.5282    2189.6711    6412.6117    7652.8115    7200.9693   -970.50602   -952.88167   -890.56294    295.49789 
410550000   4.1055e+08    292.89554    89584.282    7115.7584     0.979621   -1201.1138    2072.0105     7030.982    7278.0875    7038.2058   -1275.0163    563.57311    304.25407    292.89628 
410560000   4.1056e+08    289.83518    89584.282    6907.2418     0.979621   -1106.6967    2132.2279    5258.9787    8078.3727    7384.3741   -926.17446     843.7648    149.66567    289.83641 
410570000   4.1057e+08    294.84919    89584.282    6472.6819     0.979621   -1063.2337    2231.7228    7627.5889    6585.9404    5204.5162   -310.07904   -50.695592    797.90701    294.84952 
410580000   4.1058e+08    285.66374    89584.282    7183.7992     0.979621    -1081.735    2110.5736     6903.934    7112.2484    7535.2153   -1473.8356    133.75112   -165.31796    285.66322 
410590000   4.1059e+08    298.13895    89584.282    7547.5422     0.979621   -1110.3211    2221.3985    7888.2471    7545.4082    7208.9713   -359.50506    663.49697    115.67395     298.1389 
410600000    4.106e+08    295.89192    89584.282     6533.553     0.979621   -1048.7383    2257.8708    5124.7905    6848.1521    7627.7165   -1435.8166    60.941418   -169.00565    295.89289 
410610000   4.1061e+08    300.08845    89584.282     6592.342     0.979621   -1185.7549    2167.7506    6135.5894    7419.8383    6221.5982   -241.63534   -126.33697    33.940905    300.08911 
410620000   4.1062e+08    292.71892    89584.282    6592.7577     0.979621   -1098.6137    2172.5368    6517.9327    6297.8358    6962.5045    -766.6454   -15.460401     262.1476    292.71829 
410630000   4.1063e+08    286.11531    89584.282    5625.6241     0.979621   -1103.7294    2093.6254    4115.0669    7169.2393     5592.566   -1212.6377   -3.5550664    579.73657    286.11581 
410640000   4.1064e+08    287.34814    89584.282    6193.2921     0.979621   -981.54978     2229.582    6372.0124    5923.8353    6284.0286   -193.29094    79.944387   -272.92748    287.34863 
410650000   4.1065e+08    292.60084    89584.282    7093.7782     0.979621   -1127.5395    2142.2915    6324.4737    7773.6956    7183.1652    -464.7544    215.29368    316.59547     292.6019 
410660000   4.1066e+08    293.41111    89584.282    6630.8894     0.979621   -1200.2239    2078.6619    5066.5619    7019.8804     7806.226   -254.91532    149.20764    212.74936    293.41146 
410670000   4.1067e+08    290.04764    89584.282    6567.3492     0.979621   -1135.9932    2105.3056    5547.5454    7691.7562    6462.7461   -938.24653     871.2448   -258.15399    290.04785 
410680000   4.1068e+08    290.04234    89584.282    6877.1834     0.979621   -1040.2912    2200.9484    6350.4296     7877.244    6403.8768     494.2817    611.15307    547.51203    290.04412 
410690000   4.1069e+08    285.23861    89584.282    7428.5234     0.979621   -1157.9519    2029.6058    6790.7345    7544.4714    7950.3643   -1363.0206     456.3425    566.08076    285.23805 
410700000    4.107e+08    288.87034    89584.282    6403.1448     0.979621   -1071.9148    2156.2277    5426.7557    6778.5094    7004.1693   -782.52008    201.96643   -416.77973    288.87131 
410710000   4.1071e+08    287.29828    89584.282    6989.5687     0.979621   -1096.4586    2114.1161    5905.0286    7409.3808    7654.2966   -1934.4382    260.73773   -427.68246    287.29815 
410720000   4.1072e+08    293.18287    89584.282    6754.9719     0.979621   -1095.2255    2181.1099    7141.6177    6405.7583    6717.5397   -1148.3711    683.30983    9.3291585    293.18374 
410730000   4.1073e+08    290.25412    89584.282    5901.9881     0.979621   -1140.0769    2103.5294    5046.1917    6673.9776    5985.7949   -1646.0202   -318.19008   -241.62019    290.25517 
410740000   4.1074e+08     297.3329    89584.282    6677.8156     0.979621   -1100.7699    2221.9422    6663.0166    7108.0097    6262.4204   -647.23877    454.84249    311.56585    297.33145 
410750000   4.1075e+08    295.44329    89584.282    6612.3284     0.979621    -1167.669    2133.9265    6838.6237    6449.5999    6548.7616   -1228.7452   -306.96343   -556.07632    295.44375 
410760000   4.1076e+08    297.59448    89584.282    5944.7631     0.979621   -1105.4682     2220.167    5574.6528    6654.3111    5605.3253    183.10348    473.89235    440.85493    297.59542 
410770000   4.1077e+08    292.75422    89584.282    6170.3024     0.979621    -1162.444    2109.1011    5495.4798    6731.7325    6283.6949    -948.8674   -158.32518    346.27013     292.7553 
410780000   4.1078e+08    294.42775    89584.282    6558.6928     0.979621   -1073.5789     2216.668    5202.0615    8173.2275    6300.7894   -195.13903   -712.05709   -59.681352    294.42889 
410790000   4.1079e+08    298.83468    89584.282    7289.3947     0.979621    -1255.453    2084.0415    7115.6395    8526.4166    6226.1278   -588.15069   -73.232338    -387.3088    298.83375 
410800000    4.108e+08    293.74667    89584.282    6679.7151     0.979621    -1181.717    2100.9188    6022.7291    7380.6489    6635.7673   -1720.9911   -275.66372   -251.38763    293.74865 
410810000   4.1081e+08    294.80376    89584.282    6410.9531     0.979621    -1151.505    2142.9438    6542.6115    6548.9267     6141.321   -488.10506     67.22076    810.83161    294.80188 
410820000   4.1082e+08     291.4268    89584.282     6147.124     0.979621   -1158.6299    2098.0813    5845.8733    7041.5226    5553.9762   -1007.8185    497.53299    417.17719    291.42671 
410830000   4.1083e+08    292.31066    89584.282    7367.0376     0.979621   -1206.1235    2060.4647    8476.8138    6795.9574    6828.3416   -1129.4166   -36.602344    169.65706    292.30915 
410840000   4.1084e+08    294.82671    89584.282    6459.9264     0.979621   -1065.1551    2229.5501    6436.0038    6927.5977    6016.1777   -1023.4913   -27.953356    164.71549     294.8253 
410850000   4.1085e+08    298.19344    89584.282    6940.5124     0.979621   -1195.2473    2137.0814    6373.7125    7173.7876     7274.037   -793.07116   -425.64173    -1032.985    298.19414 
410860000   4.1086e+08    294.10835    89584.282    6434.9245     0.979621    -1108.443    2178.2346    6525.7927    5988.1151    6790.8657   -629.02778     -248.824    -424.7981    294.10806 
410870000   4.1087e+08     290.1953    89584.282    7314.6684     0.979621   -1127.2808    2115.6681    7135.6114    8209.7642    6598.6295   -1041.4867     779.9538     244.7315    290.19472 
410880000   4.1088e+08    296.04888    89584.282    6635.5467     0.979621   -1118.1819    2190.1811    6011.4815    7055.8408    6839.3176   -1241.6177    660.90433   -40.384748    296.04846 
410890000   4.1089e+08    290.68348    89584.282    6566.6536     0.979621   -1065.8608    2182.5436    6590.3714    6603.0047    6506.5847   -662.09869   -308.76189    615.12105     290.6828 
410900000    4.109e+08    292.86097    89584.282    6820.8959     0.979621   -1101.4787    2171.2593    5956.7175    8501.5679    6004.4022   -442.10136    454.62885   -306.33417    292.86175 
410910000   4.1091e+08    298.05423    89584.282    7631.5894     0.979621   -1050.9135    2279.8595    7136.5614     8732.994    7025.2128   -720.88441   -84.096489    274.97485    298.05456 
410920000   4.1092e+08     293.8003    89584.282    7061.8386     0.979621   -1163.4479    2119.7871    5801.8256     7278.168    8105.5221   -6.7623969    921.32881   -204.39396    293.80097 
410930000   4.1093e+08    286.19466    89584.282    6966.9789     0.979621   -1103.6523    2094.5894    6380.7767    7487.9398    7032.2201    -1519.755    641.65582    740.70588    286.19574 
410940000   4.1094e+08     291.9724    89584.282    7083.3217     0.979621   -1126.6875    2136.1207    7031.2828    7454.7541    6763.9283    -971.7582    477.83851   -318.04174    291.97211 
410950000   4.1095e+08    297.08032    89584.282    5804.7337     0.979621    -1228.141    2091.7485    4479.2223    6772.0072    6162.9716   -1106.4639    8.6495419   -430.62859    297.08034 
410960000   4.1096e+08    295.38842    89584.282    8197.6134     0.979621   -1084.9474     2216.035    7106.3391    8313.7354    9172.7656    31.593498   -460.23313   -319.80632    295.38831 
410970000   4.1097e+08     296.4097    89584.282     6842.658     0.979621   -1024.3399    2288.0554    5637.0828    7694.8987    7195.9924   -533.78792    64.115731   -295.02201    296.40732 
410980000   4.1098e+08    294.44346    89584.282    6973.5893     0.979621   -1121.8613    2168.5612    6453.2672    6995.0744    7472.4263   -1369.5971   -845.49684    794.86226    294.44473 
410990000   4.1099e+08    299.88334    89584.282    7233.8347     0.979621   -1076.6487    2274.5647    7850.5131    7285.7277    6565.2633   -1339.3913    182.92156   -34.205459    299.88336 
411000000     4.11e+08    294.61384    89584.282     6655.237     0.979621    -1088.468    2203.8584    7296.9567    6046.9486    6621.8056   -393.64301   -631.39346    604.28908    294.61389 
411010000   4.1101e+08    294.64768    89584.282    6114.7277     0.979621    -1140.026    2152.6786    5315.3778    5947.9912    7080.8141   -738.70248    -488.6703    114.79679    294.64875 
411020000   4.1102e+08    293.42841    89584.282    6247.7216     0.979621   -1081.5533    2197.5259     5635.899    6944.2605    6163.0053   -1072.0635    29.956319    307.42479    293.43041 
411030000   4.1103e+08    289.22833    89584.282    6861.2991     0.979621   -1141.0915    2091.0515    7321.2561    6823.8934    6438.7477   -979.68745    26.920943    -4.764076    289.22738 
411040000   4.1104e+08    295.76141    89584.282    5804.8094     0.979621   -1112.0303    2193.1202    4623.5767    6261.5702    6529.2813   -540.23722    131.83815   -832.51003    295.76204 
411050000   4.1105e+08    296.85936    89584.282    6182.2032     0.979621     -1120.89    2196.5303    6660.9058    6630.4483    5255.2554   -1163.2345   -206.54546    178.27036    296.86029 
411060000   4.1106e+08    290.23798    89584.282    6961.2797     0.979621   -1101.2208    2142.2051     6630.881    7352.1017    6900.8565   -1243.0131    158.91549    -402.6523    290.23648 
411070000   4.1107e+08    297.73021    89584.282    6751.9625     0.979621   -1064.4592    2262.6928    5781.6096    7162.1159     7312.162   -1409.7703    111.17411   -484.86215    297.73184 
411080000   4.1108e+08    293.16519    89584.282    5842.0765     0.979621   -1145.9597     2130.178    5556.0606    6212.4692    5757.6998   -1278.4337   -564.00106   -519.20161    293.16572 
411090000   4.1109e+08    296.02759    89584.282    5766.5502     0.979621   -1052.8384    2255.2867    4905.5999    6326.8989    6067.1517   -1265.1748    496.72325   -488.61237    296.02657 
411100000    4.111e+08    285.02876    89584.282    7292.6836     0.979621   -1055.3043    2129.9082    7151.4048    7603.5567    7123.0893   -863.24279   -924.17502   -214.88923    285.02742 
411110000   4.1111e+08    291.63404    89584.282    6272.9962     0.979621   -1043.0159    2216.0111    5289.3056    6506.0503    7023.6327   -2182.8789    120.09153    296.45598    291.63316 
411120000   4.1112e+08    294.87125    89584.282    6914.6389     0.979621   -1114.3917    2180.8113    6413.9124    7574.1888    6755.8156   -1333.9815   -966.16396   -210.87196    294.87095 
411130000   4.1113e+08    289.02606    89584.282    7267.8967     0.979621   -1103.9738    2125.9088    6629.6616    8261.3654    6912.6632   -1654.6181   -303.98573   -479.94671     289.0257 
411140000   4.1114e+08    289.43975    89584.282    5206.2838     0.979621   -1041.2985    2193.2073    4150.4798    6287.2917      5181.08   -1119.3227   -436.93028    414.89293    289.43982 
411150000   4.1115e+08    295.74385    89584.282    6828.7272     0.979621   -1151.8929    2153.0614    7047.2783    6427.1917    7011.7116   -687.25377   -47.474695    105.07598    295.74385 
411160000   4.1116e+08     292.3245    89584.282    6386.7833     0.979621   -1029.5576    2237.1853    5207.5601    6456.6517    7496.1381   -1859.9591   -331.07244   -225.29362    292.32533 
411170000   4.1117e+08    296.49779    89584.282    7851.5692     0.979621    -1097.205    2216.1747    8065.6837    8076.0321    7412.9916   -715.53034   -312.98556    437.12573    296.49799 
411180000   4.1118e+08    288.19547    89584.282     6462.935     0.979621   -1099.9674    2120.6334    4567.1328    7277.7334     7543.939   -1212.5479    212.72852    1035.1622    288.19581 
411190000   4.1119e+08     290.7731    89584.282     6400.727     0.979621   -1031.6894    2217.7165    6274.9819    5951.4168    6975.7823   -241.84015   -404.78437    16.894582    290.77358 
411200000    4.112e+08    294.43604    89584.282    7648.2383     0.979621   -983.92949    2306.4101    7276.9989    8135.4738    7532.2423    -942.3057    571.62442    819.63897    294.43622 
411210000   4.1121e+08    290.72136    89584.282    6863.2427     0.979621   -1054.4191    2194.4087     6971.548    6871.5463    6746.6339   -879.75695   -44.230825    1531.3841    290.72154 
411220000   4.1122e+08    297.00306    89584.282    6462.2409     0.979621    -1135.135    2183.8911    5495.4087    7395.4727    6495.8414   -1506.3888    364.00575    226.86337    297.00307 
411230000   4.1123e+08     289.1523    89584.282    5809.6597     0.979621   -1195.5271    2035.7664    6242.0462    5076.9319     6110.001   -1419.5537   -256.31675    320.60366    289.15047 
411240000   4.1124e+08    292.40817    89584.282    6487.8497     0.979621   -1066.1008    2201.5771    6461.4452     6950.902    6051.2019   -1166.0599   -429.70907    562.88249     292.4098 
411250000   4.1125e+08    294.43571    89584.282    6832.5256     0.979621    -1044.946    2245.3898    6339.3069    6580.1154    7578.1545   -610.66836    359.02914    512.85554    294.43565 
411260000   4.1126e+08    293.26487    89584.282    6350.9364     0.979621   -1015.9666    2261.2851    5930.6234    6960.5974    6161.5885   -1313.8771    312.86177    548.72421    293.26567 
411270000   4.1127e+08    287.22911    89584.282    6729.8954     0.979621   -1126.0137     2083.788    6044.4638     7051.839    7093.3834   -1101.3024   -34.786245    281.70261    287.22907 
411280000   4.1128e+08    295.16435    89584.282    5697.6693     0.979621   -1089.6161    2208.8623    5716.2259    6359.2404    5017.5416    -2122.637    360.32947   -164.74217    295.16479 
411290000   4.1129e+08    299.84071    89584.282    7269.9696     0.979621   -1084.2676    2266.4695    7181.7157    8142.1627    6486.0305   -1085.3284   -378.84404   -28.275941    299.83941 
411300000    4.113e+08    288.72612    89584.282    6887.3057     0.979621   -1080.0273    2146.5035    6524.5523    7712.0137    6425.3512   -688.43075   -241.71316    481.19909    288.72601 
411310000   4.1131e+08    288.81109    89584.282     7318.042     0.979621   -1082.1857    2145.2947    6947.7792    8137.8041    6868.5426   -980.75355   -1025.9599   -97.101026    288.80925 
411320000   4.1132e+08    291.73061    89584.282    6914.7651     0.979621   -1119.6714    2140.4347    6042.2448    7181.3612    7520.6893   -853.82344   -552.36122    76.946503    291.73189 
411330000   4.1133e+08    289.94365    89584.282    6619.0303     0.979621   -1167.4425    2072.6942    6680.4141    6434.1904    6742.4866   -474.07982   -931.21071    207.73908    289.94494 
411340000   4.1134e+08    287.34791    89584.282    7146.2398     0.979621   -1123.0351    2088.0941    7235.6484    6511.0568    7692.0143   -613.19578   -187.70874   -424.91953    287.34699 
411350000   4.1135e+08    289.69804    89584.282    6817.5944     0.979621   -1097.4051     2139.987     6378.703    6937.7501    7136.3299   -836.20873    303.47078    285.20034      289.697 
411360000   4.1136e+08    288.04499    89584.282    5934.2132     0.979621   -1091.9618    2126.9574    4744.4669    6499.1652    6559.0074   -824.50178    905.19419    700.73074    288.04562 
411370000   4.1137e+08    291.61128    89584.282    6816.5099     0.979621   -1204.4838    2054.2888    6710.2799    7020.7532    6718.4967   -657.99116    60.216898    680.55698    291.61103 
411380000   4.1138e+08    296.68434    89584.282    6958.4696     0.979621   -1103.4559    2212.0085    6521.3439    7451.5714    6902.4935    -1934.619   -80.790974   -378.50978    296.68554 
411390000   4.1139e+08     293.9172    89584.282     7266.286     0.979621   -1042.0067    2242.5347    6710.9337    7094.4978    7993.4266   -743.36662   -341.34208   -22.941486    293.91845 
411400000    4.114e+08    297.67998    89584.282    6114.4072     0.979621   -1144.8184    2181.7722    5612.9737     7467.813    5262.4349   -1129.1635   -571.54554   -422.11533    297.68073 
411410000   4.1141e+08    293.30841    89584.282    7170.8105     0.979621   -1012.5433    2265.1949    6254.2163    7331.3858    7926.8295   -280.39353    119.93091   -9.5155684    293.30855 
411420000   4.1142e+08    294.61987    89584.282    6378.0066     0.979621   -1102.1719    2190.2219    6198.6399    6801.6584    6133.7214   -658.39224    785.68196   -327.02052    294.61931 
411430000   4.1143e+08    294.99173    89584.282    5984.6513     0.979621   -1022.2216    2274.3277    6417.2722    6184.0971    5352.5845   -1071.4939   -440.08142    318.61476    294.99232 
411440000   4.1144e+08    294.09406    89584.282    6278.1543     0.979621   -1025.0346    2261.4833     5132.479    7121.7109    6580.2731   -2129.9818    403.76946    288.46715    294.09424 
411450000   4.1145e+08    288.88799    89584.282    6932.7999     0.979621   -1087.9805    2140.3592    6576.3322    6381.1829    7840.8845    199.32777    77.869302    188.63181    288.88918 
411460000   4.1146e+08    294.93198    89584.282     7852.265     0.979621   -1114.7707     2181.111    7811.7459    8006.6745    7738.3746    160.91255   -351.26713   -641.30939    294.93346 
411470000   4.1147e+08    300.30572    89584.282    6436.2811     0.979621   -1042.2459    2313.6876    5561.0699    6763.4344    6984.3391   -677.81454   -411.21612    328.47051    300.30582 
411480000   4.1148e+08    306.35911    89584.282    6842.6922     0.979621   -1072.4595     2351.121    6475.0638    6744.7523    7308.2604   -876.06429   -50.641672    253.28031    306.35872 
411490000   4.1149e+08    291.93035    89584.282    6551.0768     0.979621   -1127.3537    2134.9846    6643.7303    6548.1846    6461.3156   -300.52935    48.609426     101.3805    291.93198 
411500000    4.115e+08    293.66089    89584.282    6405.0337     0.979621   -1149.5757    2132.1015    6618.9876    5714.4955     6881.618   -590.05521   -219.43617   -8.4546386    293.66261 
411510000   4.1151e+08    290.26966    89584.282    5909.8097     0.979621    -1149.032     2094.748    5550.6733    6641.0739     5537.682   -1451.9119    32.684297    167.93065    290.26875 
411520000   4.1152e+08    297.10304    89584.282    6853.2947     0.979621   -1157.9683    2162.1751    6306.3253    7402.8681    6850.6908   -865.08404      122.229   -609.21527    297.10268 
411530000   4.1153e+08     294.4843    89584.282    6230.9885     0.979621    -1185.144    2105.7348    6152.7566    6374.0989    6166.1099   -683.02964   -608.28513    558.77141    294.48573 
411540000   4.1154e+08    299.92263    89584.282    6940.4352     0.979621   -1064.2054    2287.4471    7128.0735    7100.8206    6592.4116   -710.93647    206.86625    250.38548    299.92321 
411550000   4.1155e+08    301.36977    89584.282    6662.6621     0.979621   -1136.0933     2231.731    6725.6495    6759.6101    6502.7267   -169.38393    147.96282    888.18399    301.37088 
411560000   4.1156e+08    296.34736    89584.282    6973.3861     0.979621   -1122.9175    2188.7811    6943.0016    6282.5099    7694.6467   -530.03454    5.1055992   -443.55885    296.34525 
411570000   4.1157e+08    296.21592    89584.282    6402.6017     0.979621   -1129.0014    2181.2283    7257.9455    5209.9108    6739.9489   -1458.0122   -33.179693    525.60372    296.21606 
411580000   4.1158e+08    292.92546    89584.282    7361.5024     0.979621   -1165.9082    2107.5505    7756.7635     7126.505    7201.2388   -653.66282    436.16113    760.67404    292.92594 
411590000   4.1159e+08     290.0154    89584.282    6800.5747     0.979621   -1155.7846     2085.154    6970.2743    6081.9381    7349.5117   -899.83814    347.56957   -110.57235    290.01538 
411600000    4.116e+08    290.13505    89584.282    5622.4131     0.979621   -1118.2978    2123.9779    5013.8185    5912.1306    5941.2902   -1024.0861    -756.8416    -324.6578     290.1355 
411610000   4.1161e+08    297.38291    89584.282     6971.941     0.979621   -1096.0886    2227.1823    6457.1716    6644.4636    7814.1878   -242.53877    26.528455   -11.940259    297.38302 
411620000   4.1162e+08    299.00692    89584.282    5852.7338     0.979621   -1124.1964    2217.2229    5042.8854    6150.6253    6364.6906   -988.50578   -279.71479     520.4401    299.00692 
411630000   4.1163e+08    293.15647    89584.282    6067.0837     0.979621   -1168.5086    2107.5316    4751.2871    6334.3209    7115.6431   -841.20886    126.96022   -81.644755    293.15689 
411640000   4.1164e+08    286.42121    89584.282    5794.8699     0.979621   -1154.3872    2046.3861    5412.4476    6290.6927    5681.4693   -1094.7924   -1139.7161   -520.34306    286.42222 
411650000   4.1165e+08    295.06017    89584.282    6971.6744     0.979621   -1126.1205    2171.1937    6240.6558    7142.2305     7532.137    -743.1636    216.46742    712.40377    295.06003 
411660000   4.1166e+08    298.31108    89584.282     5736.461     0.979621   -1113.5415    2220.1018    5944.6996    5263.4781    6001.2053   -1435.4712   -607.44054   -746.72967    298.31101 
411670000   4.1167e+08    298.10384    89584.282    6063.4881     0.979621   -1079.7279    2251.5994    5417.9707    6766.3821    6006.1116    474.44562   -562.94486    196.38245    298.10359 
411680000   4.1168e+08    294.30493    89584.282    6656.8816     0.979621   -1107.9047    2180.9696    6654.5524    6655.0549    6661.0375   -1467.2927   -296.89777   -427.33494     294.3061 
411690000   4.1169e+08    289.70288    89584.282    7146.1323     0.979621   -1104.8341     2132.612    6406.3124    6919.4716    8112.6131   -248.90027   -245.33586    105.98191     289.7013 
411700000    4.117e+08     298.7617    89584.282    7134.2371     0.979621   -1143.0677    2195.6112    7374.5284    6587.0929      7441.09   -1738.9415    452.07108    485.88345    298.76277 
411710000   4.1171e+08     291.8295    89584.282     6837.512     0.979621   -1103.3817    2157.8296    7661.6542    5832.0862    7018.7956   -1044.2522   -83.243089    1159.3371     291.8296 
411720000   4.1172e+08    296.38443    89584.282    6923.0379     0.979621   -1154.7577    2157.3551    6672.8889    7260.9844    6835.2404   -764.59391   -428.63629   -106.85241    296.38585 
411730000   4.1173e+08    296.32952    89584.282     6312.554     0.979621   -1131.5973     2179.902    5814.3997    6456.6715    6666.5907   -1728.3428    198.94812   -370.98786    296.32928 
411740000   4.1174e+08    291.69796    89584.282    7148.7206     0.979621   -1138.1132    2121.6281    7076.7524    7201.1651    7168.2445   -79.594895   -99.560921   -414.68514    291.69734 
411750000   4.1175e+08    289.89442    89584.282    6628.8991     0.979621   -1078.7586     2160.828    6820.0362    5844.0036    7222.6575   -678.57055    129.94459   -653.61229    289.89459 
411760000   4.1176e+08    296.31033    89584.282    6826.1121     0.979621   -1112.9179    2198.3668    6972.3687    6661.2576      6844.71   -1202.6762    239.08686   -697.57768    296.31184 
411770000   4.1177e+08    288.95832    89584.282    6456.7586     0.979621   -1136.4071    2092.7186    5060.6208    7043.7817    7265.8733   -2049.6702     496.9399    565.94004    288.95799 
411780000   4.1178e+08    287.34229    89584.282    6643.3451     0.979621   -1010.8877    2200.1787    6467.5741    7234.0563    6228.4049   -493.56219   -31.905057    1632.0724    287.34312 
411790000   4.1179e+08    292.08724    89584.282    7329.4318     0.979621   -1121.5254    2142.5662    8548.8585    6737.1335    6702.3034   -236.91126     339.3018   -235.58093    292.08872 
411800000    4.118e+08    284.30697    89584.282    6052.1467     0.979621   -1123.6285    2053.5181    5594.2402    6680.3927    5881.8073   -657.34235    629.94584   -197.89411    284.30548 
411810000   4.1181e+08    290.77631    89584.282    7303.9949     0.979621   -1098.7865    2150.6553    8188.9122    6933.9804    6789.0921   -1158.6759   -403.82942    240.09874    290.77727 
411820000   4.1182e+08    291.76287    89584.282    6581.6749     0.979621   -1128.6142    2131.8525    6380.8936    6010.9177    7353.2133   -565.79523    194.52767    665.38413    291.76161 
411830000   4.1183e+08    298.60069    89584.282    6772.4239     0.979621   -1095.4133    2241.4664    6388.6369    7035.0199    6893.6147    -1193.592   -380.55336    766.91593     298.6021 
411840000   4.1184e+08     295.5103    89584.282    6862.7516     0.979621   -1071.2649    2231.0795    6623.1921    7108.3912    6856.6716   -713.39576    20.322487    213.44072    295.51041 
411850000   4.1185e+08     294.2421    89584.282    6281.3651     0.979621    -1153.268    2134.9042    7427.0379    5737.8825    5679.1749   -1200.9055   -307.16599    1378.2383    294.23909 
411860000   4.1186e+08    290.68833    89584.282    6826.8104     0.979621   -1131.7247    2116.7339     6779.875    7209.5425    6491.0139   -458.42813    227.67162    -210.0256    290.68936 
411870000   4.1187e+08    286.82968    89584.282    6801.8222     0.979621   -1087.6162    2117.7217    5865.1737    7147.7829    7392.5099   -50.907697    422.95367   -22.889345    286.83016 
411880000   4.1188e+08    291.76308    89584.282    6450.3196     0.979621   -1080.9127    2179.5563    4688.4372     6950.954    7711.5677   -821.12041   -281.77129    -582.6057    291.76248 
411890000   4.1189e+08    294.49383    89584.282     6788.508     0.979621   -1113.4017    2177.5835    6688.4049    7851.1805    5825.9387    113.06296    742.75037    169.91875    294.49437 
411900000    4.119e+08    296.28427    89584.282    6783.2706     0.979621   -1114.6021    2196.3914    6754.1586    6623.2851    6972.3682    -902.5743   -329.50327    295.83178    296.28395 
411910000   4.1191e+08    297.05045    89584.282     6425.031     0.979621   -1160.2682    2159.2874    6571.4089    6554.0198    6149.6643   -121.13958    764.12098   -27.555521    297.05169 
411920000   4.1192e+08    290.12898    89584.282    7130.8025     0.979621   -1141.0822    2101.1257    6857.1021    7226.0447    7309.2607   -252.41733   -185.75796    245.78359    290.12928 
411930000   4.1193e+08    290.35156    89584.282    6296.2416     0.979621   -1215.1013    2029.5939    5455.1017    6362.6216    7071.0014   -1200.8897   -264.01535    828.27691    290.35186 
411940000   4.1194e+08     296.4755    89584.282    6867.3778     0.979621   -1161.6999    2151.4307    6783.3218    6049.5321    7769.2796   -131.70593   -223.97508    217.16828      296.474 
411950000   4.1195e+08    299.08389    89584.282    6677.0203     0.979621      -1149.1    2193.1795    4913.4523    7257.6955    7859.9129   -319.31351    151.28651   -510.08116    299.08315 
411960000   4.1196e+08    292.59702    89584.282    6628.6538     0.979621   -1158.2121    2111.5763    5949.8418    7312.9583    6623.1613    -1300.067    724.70658   -79.631293    292.59648 
411970000   4.1197e+08    286.83502    89584.282    5963.5099     0.979621   -1179.3346    2026.0631    4898.7634     6835.311    6156.4554   -46.162522    -340.5623   -282.11905    286.83525 
411980000   4.1198e+08     293.4783    89584.282    8005.8507     0.979621   -1191.4604    2088.1763    9642.8469    7219.8408    7154.8643   -276.20951   -86.977008   -347.52117    293.47952 
411990000   4.1199e+08    288.98222    89584.282    6147.6265     0.979621   -1174.1921    2055.2006     5008.783    6474.0027    6960.0938   -1183.6442   -715.26688   -428.05513    288.98326 
412000000     4.12e+08    291.37983    89584.282    6533.6674     0.979621   -1084.5721    2171.6141    5953.9676    7409.5466    6237.4879   -641.78732   -514.99778   -99.692434    291.37994 
412010000   4.1201e+08    289.49189    89584.282    6666.1129     0.979621   -1198.6042    2036.4841    5106.8542    7013.8044    7877.6801   -781.46971   -297.22056    -253.4905    289.49179 
412020000   4.1202e+08    291.73186    89584.282    7293.3496     0.979621   -1140.9598    2119.1603    6742.6708    7449.1414    7688.2365   -213.45985    403.83083    -302.3397    291.73292 
412030000   4.1203e+08    298.73462    89584.282    6977.2146     0.979621   -1078.9249    2259.4515    6739.9976    6577.0248    7614.6215    64.207813    246.17194   -298.29783     298.7347 
412040000   4.1204e+08    298.83832    89584.282    6913.3094     0.979621   -1220.9897    2118.5455    7019.2428    6632.8436    7087.8419   -577.65823   -187.69268    128.89593    298.83864 
412050000   4.1205e+08    288.47776    89584.282    6697.7257     0.979621   -1123.0386    2100.7167     5077.567    7662.7609    7352.8492   -10.185321    605.65811    81.011513    288.47583 
412060000   4.1206e+08    293.96511    89584.282    6564.5987     0.979621   -1241.6458    2043.4311    6510.3768    7236.4447    5946.9746   -406.98233    184.18841    603.14123    293.96554 
412070000   4.1207e+08     290.5596    89584.282    6445.6227     0.979621   -1096.4591     2150.561    6143.7842     7625.786     5567.298    -912.1711   -89.618476    417.58468    290.56004 
412080000   4.1208e+08     291.4631    89584.282    6253.6448     0.979621   -1130.4379    2126.6789     5592.904    6138.4925    7029.5379   -609.56867   -259.61836   -431.25567    291.46153 
412090000   4.1209e+08    296.77794    89584.282    7623.6043     0.979621   -1103.0748    2213.4356    7441.2687     8431.825    6997.7191   -581.44301   -193.79568    73.665134    296.77613 
412100000    4.121e+08    297.16265    89584.282    7648.2408     0.979621   -1196.0988    2124.7107    7578.2965     7749.693     7616.733   -615.98249   -630.53539    914.19551     297.1608 
412110000   4.1211e+08    291.01581    89584.282     5611.832     0.979621   -1139.7269    2112.3913    6137.2668    5594.9563    5103.2727   -1657.9429    543.47296   -1027.2368    291.01662 
412120000   4.1212e+08    299.77384    89584.282    6345.5939     0.979621   -1123.0045    2226.9852    6051.3459    6412.8443    6572.5915   -406.60036   -47.709431    119.59931    299.77324 
412130000   4.1213e+08    291.39743    89584.282    6692.2713     0.979621   -1134.4885    2121.8943    5375.7726    7775.6839    6925.3575   -482.04076    54.778426   -176.03057     291.3968 
412140000   4.1214e+08    292.65655    89584.282    6258.3677     0.979621   -1057.9273    2212.5263      5488.19    6589.3478    6697.5654   -876.91683   -694.62964   -270.28783    292.65765 
412150000   4.1215e+08    300.27624    89584.282    5815.9995     0.979621   -1180.2082    2175.3959    5532.2014    5856.5421    6059.2552    544.82999   -51.555192    255.46113    300.27602 
412160000   4.1216e+08    294.87947    89584.282    6516.6383     0.979621    -1127.221    2168.0738    6291.8372    7395.4392    5862.6384   -948.91001    -23.69685   -348.68567    294.87949 
412170000   4.1217e+08    292.20058    89584.282    6957.0791     0.979621   -1194.9391    2070.4189    7004.9388     6385.475    7480.8234    -667.4897    464.54152   -871.42651    292.20213 
412180000   4.1218e+08    291.63598    89584.282    7131.6047     0.979621   -1110.6258    2148.4229    6570.0102    6617.5027    8207.3012   -1116.2837    536.21057   -119.39342    291.63503 
412190000   4.1219e+08    289.48881    89584.282    6527.9254     0.979621    -1104.766     2130.288    6192.3933    6551.4661    6839.9168   -37.840858   -331.02707   -303.09569    289.48753 
412200000    4.122e+08    294.74713    89584.282    7732.9772     0.979621   -1197.5432    2096.2727    7869.9537    6948.4725    8380.5053   -543.98068    574.85289    261.56575    294.74755 
412210000   4.1221e+08    293.06959    89584.282    6339.1015     0.979621   -1171.2074    2103.8618    6174.1894    6582.7157    6260.3995    1.1798713    360.16594     210.2499    293.06929 
412220000   4.1222e+08    291.26823    89584.282    6304.7347     0.979621   -1076.1659    2178.7731    5668.1485    6991.3131    6254.7425   -309.33362    -115.1813    -63.84405     291.2687 
412230000   4.1223e+08    283.61473    89584.282    6582.9581     0.979621   -1074.1353    2095.2754    6220.8629    6372.8635     7155.148   -1449.2653   -232.20542   -102.54067    283.61439 
412240000   4.1224e+08    294.97615    89584.282    6275.8877     0.979621   -1199.1386    2097.2366    4017.6387     6780.664    8029.3603   -76.124011    116.02827   -66.975959    294.97823 
412250000   4.1225e+08    297.39282    89584.282    6768.3176     0.979621   -1177.4188    2145.9629    6788.1754    7472.9689    6043.8084    -864.2192   -323.82569   -307.39575    297.39336 
412260000   4.1226e+08    297.60232    89584.282    5153.1769     0.979621   -984.46059    2341.2623    3732.7935    6845.7276    4881.0096   -127.61914   -429.13087     767.7151    297.60009 
412270000   4.1227e+08    289.22391    89584.282    5877.2515     0.979621   -1131.5631    2100.5306     4897.929    7009.1951    5724.6303   -900.50548   -36.329554   -99.068938    289.22652 
412280000   4.1228e+08    298.91508    89584.282    7242.7288     0.979621   -1099.6741    2240.7189    7373.7798    7489.3268    6865.0798   -1166.1144   -136.77388    -170.1534    298.91677 
412290000   4.1229e+08    292.45327    89584.282    6498.0181     0.979621   -1102.8969    2165.2851    7354.9332    6939.0078    5200.1134   -476.77469    647.12334    266.51717    292.45196 
412300000    4.123e+08    298.02739    89584.282    6837.4108     0.979621   -1186.5683    2143.9047    6339.1708    6929.0391    7244.0225   -1118.6819   -675.83631   -851.53799    298.02696 
412310000   4.1231e+08    294.33951    89584.282    6900.6639     0.979621   -1105.9925    2183.2683    6089.4738    6827.1793    7785.3387   -123.75463    664.96671    56.260449    294.33833 
412320000   4.1232e+08    292.94134    89584.282    6418.6621     0.979621   -1131.8999    2141.7362    6329.3766    5973.7121    6952.8976   -631.25897   -344.24118    -1131.006    292.94188 
412330000   4.1233e+08    291.95079    89584.282    4982.8606     0.979621   -1130.6445    2131.9222    4242.5205    5413.2329    5292.8284   -619.05502    40.172906   -345.37864    291.95073 
412340000   4.1234e+08    295.52547    89584.282    6648.6534     0.979621   -1136.2677    2166.2463    5605.6427    7598.9087    6741.4087   -818.53093     -125.056    325.26622    295.52666 
412350000   4.1235e+08    294.45582    89584.282     6452.087     0.979621   -1116.2934    2174.2671    6191.6211    7082.4926    6082.1473    -805.3872    88.210018    757.86263    294.45662 
412360000   4.1236e+08    292.05365    89584.282    6943.0495     0.979621   -1181.1361      2082.58    6751.2224    7594.3489    6483.5772   -80.728095    327.79123     52.06471    292.05426 
412370000   4.1237e+08     293.7782    89584.282    6487.9278     0.979621   -1074.4995    2208.4886    6201.0106     6355.333    6907.4399   -410.65405    202.74876   -702.25387    293.77979 
412380000   4.1238e+08    297.75638    89584.282    7193.5697     0.979621   -1166.4714     2160.973    6829.3378    7201.3315    7550.0398   -432.86897    267.05717   -528.41693    297.75613 
412390000   4.1239e+08    284.57157    89584.282     6579.228     0.979621   -1053.9164    2126.1871    5905.4664    7309.7088    6522.5087   -937.59372    152.30077    301.41173    284.57137 
412400000    4.124e+08    293.63184    89584.282    5788.1154     0.979621   -1133.2462    2148.1063    5384.5533    6493.7271     5486.066   -850.05658    -810.3703   -769.21776    293.63144 
412410000   4.1241e+08    291.57509    89584.282    7326.6419     0.979621   -1142.8954    2115.4728    6310.5142    8413.2483    7256.1633   -65.993025    16.742913   -250.24845    291.57432 
412420000   4.1242e+08    287.82012    89584.282    6258.9277     0.979621   -1160.0558    2056.3504    6025.2499    6878.8389    5872.6943    527.31458    663.81873    32.376316    287.82034 
412430000   4.1243e+08     292.6764    89584.282    5744.4309     0.979621   -1098.6977    2171.9777    4981.9214    6682.3437    5569.0274   -754.69448    223.16436    586.24644    292.67802 
412440000   4.1244e+08    293.34005    89584.282    6611.0911     0.979621   -1179.9409    2098.1509    5821.7731    6650.4109    7361.0893   -1420.2175   -574.79337     265.0385     293.3416 
412450000   4.1245e+08    294.68599    89584.282      6997.77     0.979621   -1122.7292    2170.4035    7635.5063    5738.3932    7619.4105   -737.35238    808.19941    274.65408     294.6863 
412460000   4.1246e+08     300.6086    89584.282    6692.1431     0.979621   -1138.6347    2220.6835    6655.0115    7336.5621    6084.8557    5.3491893   -122.01146   -412.67286    300.60975 
412470000   4.1247e+08    291.87023    89584.282    6879.1829     0.979621   -1060.1012    2201.5652    7175.9435    6365.3936    7096.2117   -841.13976    1090.6323   -397.29235    291.87144 
412480000   4.1248e+08    295.08343    89584.282    6281.5145     0.979621   -1108.0985    2189.4756    6214.9532    5593.7102    7035.8801   -207.27083    498.12135    191.32921    295.08445 
412490000   4.1249e+08    284.90671    89584.282    7305.8967     0.979621   -1073.7999    2110.0488    6661.9009     7382.669    7873.1202   -462.67721      829.393    132.39788    284.90607 
412500000    4.125e+08    286.49159    89584.282    6872.2905     0.979621   -1176.6941    2024.8657    6133.0633    7004.5406    7479.2675    310.87326    585.53979    79.270045    286.49236 
412510000   4.1251e+08    294.65118    89584.282    6540.7275     0.979621   -1152.1736    2140.5701     6494.602    6124.9296     7002.651   -1156.5417   -614.48272   -92.295868     294.6512 
412520000   4.1252e+08    290.24284    89584.282      6073.28     0.979621   -1087.1793     2156.301    4546.4378    6807.5958    6865.8064   -808.16676    379.03973    102.43692    290.24313 
412530000   4.1253e+08    296.77796    89584.282    7552.6313     0.979621   -1173.0215    2143.4891    7664.4451    8283.9228    6709.5259   -535.91118    822.76349    268.67162    296.77893 
412540000   4.1254e+08    290.28658    89584.282    6131.9317     0.979621   -1064.7538    2179.2152    6379.8856    6201.1978    5814.7118   -722.93554   -44.586646    390.55094    290.28719 
412550000   4.1255e+08    293.01519    89584.282    5547.7736     0.979621   -1210.7771    2063.6842    4644.0003    6060.4208    5938.8997   -799.04538   -186.68094    192.88438    293.01467 
412560000   4.1256e+08    303.41245    89584.282    6045.6091     0.979621   -1188.5104    2202.1411    5112.8569    6446.2233     6577.747   -1101.1624    242.54642   -68.465816    303.41124 
412570000   4.1257e+08    300.62359    89584.282    7675.0351     0.979621   -1123.8135    2235.6722    6782.9927    8187.9232    8054.1894   -698.32132   -780.59294   -108.96146    300.62458 
412580000   4.1258e+08    295.06465    89584.282    6805.0671     0.979621   -1189.9654    2107.3988    4515.0225    7240.0424    8660.1364    -874.8803   -285.57966   -873.99444    295.06507 
412590000   4.1259e+08    299.04997    89584.282    7357.8629     0.979621   -1198.2327    2143.6677    6821.5424    8370.8437    6881.2026   -20.713913   -413.39278   -992.15704    299.04979 
412600000    4.126e+08    288.96072    89584.282    5787.4702     0.979621   -1117.9394    2111.2131    4322.1733    6680.2719    6359.9653    -32.42555    683.66625   -137.23739    288.96067 
412610000   4.1261e+08    286.82229    89584.282    7120.6479     0.979621   -1153.6369    2051.6185    6239.9839    8085.0722    7036.8876   -1318.4274    175.26671   -678.65215    286.82191 
412620000   4.1262e+08    282.77094    89584.282    5172.0463     0.979621   -1109.5406    2050.4407    4483.7387    5722.1293    5310.2708   -1019.0791   -29.780172    181.66678    282.77221 
412630000   4.1263e+08    292.47132    89584.282    6850.7165     0.979621   -1125.9127    2142.4709    6950.8869    6642.2723    6958.9904   -1077.7867    43.114137    330.66659    292.47174 
412640000   4.1264e+08    286.14138    89584.282    7002.6871     0.979621   -1250.0386    1947.6076    6213.7166    7657.2567    7137.0879   -612.78812   -122.43054   -493.84562    286.14238 
412650000   4.1265e+08    297.73012    89584.282    7581.5982     0.979621    -1104.284     2222.867    7875.5065     8019.025    6850.2631   -302.58764    911.26065    18.597693    297.73099 
412660000   4.1266e+08    293.80968    89584.282    6158.2295     0.979621   -1132.2728    2151.0671    5173.9254    6841.7605    6459.0028   -1139.4294   -34.637713   -186.66074    293.81144 
412670000   4.1267e+08    290.62842    89584.282    5720.2277     0.979621   -1179.9584    2067.8307     4972.981    5895.9402    6291.7617   -219.56563   -40.672904    -16.53899     290.6283 
412680000   4.1268e+08    298.04467    89584.282    7456.8585     0.979621   -1218.1068    2112.5593    6481.4752    7920.9858    7968.1145   -1195.3759    561.18086    359.12292    298.04528 
412690000   4.1269e+08    291.12875    89584.282    6644.0329     0.979621    -1129.171    2124.2093    6079.5205    7704.0613    6148.5168   -268.79169    176.40386    149.58161    291.12834 
412700000    4.127e+08     293.1243    89584.282    5822.5161     0.979621   -1087.1776    2188.5032    4832.4405    6472.1784    6162.9292   -1522.7055   -505.72598   -441.08273    293.12247 
412710000   4.1271e+08     286.9476    89584.282     6251.413     0.979621   -1152.4445    2054.2112    5457.9349    6432.6848    6863.6192   -874.80747    746.13867    29.150535    286.94545 
412720000   4.1272e+08    293.44789    89584.282    6238.7624     0.979621   -1178.5906    2100.7062     4860.319    7188.2931     6667.675   -989.47896    315.23322   -162.11243     293.4492 
412730000   4.1273e+08    291.14624    89584.282    7192.2102     0.979621   -1166.0528    2087.5229    7991.0657    6882.3683    6703.1966   -534.68699    75.629734    359.54983    291.14635 
412740000   4.1274e+08    298.20609    89584.282    5645.8948     0.979621   -1081.2434    2251.2266    5644.8103    5351.3565    5941.5176    -766.0593    197.84612    680.82675    298.20708 
412750000   4.1275e+08     295.7212    89584.282    6804.9146     0.979621   -1055.8357    2248.8655    5527.6771    7829.3018    7057.7648    -150.1456    556.07116    1046.2505    295.72016 
412760000   4.1276e+08    287.33751    89584.282    6737.5082     0.979621   -1117.8817    2093.1313    6763.3491    7018.1009    6431.0746   -438.43419    175.11438   -724.31814    287.33947 
412770000   4.1277e+08    287.10532    89584.282    6485.0698     0.979621   -1109.6716    2098.7467    5342.6328    7151.2078    6961.3686   -240.13362   -140.75321    56.269857    287.10471 
412780000   4.1278e+08    285.22968    89584.282    6863.9114     0.979621   -1072.8364    2114.6215    8020.8682    7348.1666    5222.6995   -453.07856   -641.15753   -531.27581    285.22814 
412790000   4.1279e+08    296.75245    89584.282    7896.5117     0.979621   -1135.5741    2180.6514    7466.8248    8350.4359    7872.2743   -993.28638     408.4857    233.05223    296.75375 
412800000    4.128e+08    299.90078    89584.282      6476.07     0.979621   -1143.5613    2207.8469    5109.0824    7640.7027    6678.4249   -122.07415    829.17771   -123.75601    299.90092 
412810000   4.1281e+08    287.94916    89584.282    5556.3109     0.979621   -1079.2028    2138.6454    4779.2574    6294.4332     5595.242   -1118.5285    -75.26327   -494.63343    287.94758 
412820000   4.1282e+08    285.22801    89584.282    6337.7475     0.979621   -1099.1991    2088.2402    6413.8742    5729.7046    6869.6635   -765.26557   -9.2077398    30.578854    285.22787 
412830000   4.1283e+08    289.21214    89584.282    6794.8234     0.979621   -1203.4677    2028.4944    7530.7585     6669.998    6183.7137   -675.69759    575.55124    495.20984    289.21273 
412840000   4.1284e+08    290.89646    89584.282    6376.0801     0.979621   -1171.9821    2078.8025    6066.8839    6793.9503    6267.4062   -663.63731    -560.8833   -35.925257    290.89771 
412850000   4.1285e+08    290.63864    89584.282    6724.5201     0.979621   -1230.3184    2017.5849    5894.1891     6749.302    7530.0691    6.8657672   -636.10464   -459.09838    290.63881 
412860000   4.1286e+08    293.81646    89584.282    6885.4296     0.979621   -1060.9304    2222.4853    6075.6442    7720.9905    6859.6542   -921.64027     310.2524     749.0172    293.81811 
412870000   4.1287e+08    290.94836    89584.282    5808.8261     0.979621   -1126.3217    2125.0428    5064.0138    5979.5708    6382.8937   -1369.4486    -242.9001    113.91965    290.95014 
412880000   4.1288e+08    291.18031    89584.282    7518.2655     0.979621   -1097.0472    2156.9094    6441.5843    7925.0333    8188.1789   -155.35733    661.86646     945.2052    291.17999 
412890000   4.1289e+08    293.91425    89584.282    6151.4122     0.979621   -1109.1223    2175.3861    6071.0536      5155.23     7227.953   -1149.1758   -653.69452    506.33886    293.91454 
412900000    4.129e+08    288.96785    89584.282    7332.3805     0.979621   -1180.2291     2049.003    7180.7324    7534.4172    7281.9919   -532.13527    -212.0672   -579.37268    288.96769 
412910000   4.1291e+08    289.62986    89584.282    6991.9833     0.979621   -1184.9279    2051.7023    6312.3177    7306.6266    7357.0056   -1304.0948   -298.34577    53.848217    289.62992 
412920000   4.1292e+08     289.6864    89584.282    6467.0589     0.979621   -1127.0814    2110.1806    6052.5883    6786.2633    6562.3253   -1096.7004    219.06397    -732.5039    289.68461 
412930000   4.1293e+08    288.90751    89584.282    6030.7294     0.979621   -1112.7719     2115.786    5331.5358    6204.9466    6555.7058   -930.08078   -807.41982    140.80104    288.90763 
412940000   4.1294e+08    298.61485    89584.282    6350.4315     0.979621   -1157.4638    2179.5741    5203.0649     8017.639    5830.5907   -173.64429    329.47875    89.242356     298.6142 
412950000   4.1295e+08    295.20204    89584.282    6077.4526     0.979621   -1158.9658    2139.9337    5101.2427    6028.0717    7103.0435   -598.81856   -407.08386    664.88473    295.20152 
412960000   4.1296e+08     294.1407    89584.282    7069.6344     0.979621   -1062.4017    2224.6374    5727.9918    7145.9211    8334.9903   -926.99105    568.66403   -341.17357    294.14048 
412970000   4.1297e+08    287.49984    89584.282    6528.4239     0.979621   -1076.2665    2136.5605    6728.9471    6864.8395    5991.4853   -1122.2562     407.1053    952.73323    287.50026 
412980000   4.1298e+08    298.73935    89584.282    6440.3089     0.979621   -1158.3605    2180.0688    5134.3168    6727.6069    7459.0029   -1695.7917    286.90476    480.46857    298.73996 
412990000   4.1299e+08    291.64528    89584.282    6544.2929     0.979621   -1126.7874    2132.3653    5454.0124    6975.6929    7203.1732   -1012.8138    220.29775    43.376736    291.64446 
413000000     4.13e+08     295.9045    89584.282    6323.7495     0.979621   -1193.8955    2112.8541    4730.0533    6728.6365    7512.5586   -640.34129    -290.8487    320.46959    295.90348 
413010000   4.1301e+08    290.14519    89584.282    6422.3771     0.979621   -1043.6381    2198.7509    5769.5738    7092.6572    6404.9003   -1859.1967   -515.02906    807.02948     290.1444 
413020000   4.1302e+08     289.7425    89584.282     6744.322     0.979621   -1129.4615    2108.4274    5455.5739    6960.5868    7816.8052   -1185.1577    738.97385   -740.17225     289.7419 
413030000   4.1303e+08    296.02387    89584.282     6839.953     0.979621   -1145.3676     2162.716    5407.6872    7821.0275    7291.1444    -1167.768    612.43399    85.022064    296.02409 
413040000   4.1304e+08    289.01056    89584.282    6350.2895     0.979621   -1126.3183    2103.3911    6048.2707    7131.1854    5871.4124     -968.461    249.19051   -182.77285    289.00969 
413050000   4.1305e+08    292.58504    89584.282    5746.7785     0.979621   -1094.3487    2175.3058    4434.2826    6251.3976    6554.6552   -926.76012   -523.60359    175.81764    292.58499 
413060000   4.1306e+08    294.97049    89584.282    6259.0468     0.979621    -1077.106     2219.206     5852.459    7074.7324     5849.949    -174.4435   -38.667382    471.26018    294.97025 
413070000   4.1307e+08    293.91516    89584.282    6694.3783     0.979621   -1119.8547    2164.6639    6401.5014    6647.7876    7033.8458    -730.8106    514.94643   -274.47965    293.91426 
413080000   4.1308e+08    288.63136    89584.282    6576.9042     0.979621   -1111.1052    2114.3667     6111.889    6898.7658    6720.0579   -551.89055   -102.77082    66.503863    288.63068 
413090000   4.1309e+08    289.34807    89584.282    6122.4784     0.979621   -1205.4956    2027.9855    5533.3458    6589.9131    6244.1763   -842.99409   -296.82499   -305.29303    289.34887 
413100000    4.131e+08    286.14462    89584.282    6044.0461     0.979621     -1132.34    2065.3424    5058.4041    5724.5822    7349.1519   -657.21197    300.12335    325.55845    286.14518 
413110000   4.1311e+08    292.47998    89584.282    6444.1715     0.979621   -1139.9357    2128.5448    5996.8252    6999.4059    6336.2835   -271.99052     268.9335    541.18208    292.48033 
413120000   4.1312e+08    292.36278    89584.282    7011.4166     0.979621   -1090.9033    2176.2674    6191.3416    7078.5205    7764.3879   -592.92111   -742.44663    371.93887     292.3622 
413130000   4.1313e+08    289.54988    89584.282    6499.9645     0.979621   -1069.6789    2166.0574     7214.322    6714.8124    5570.7592   -550.03994   -16.579396    654.73438     289.5516 
413140000   4.1314e+08    300.77543    89584.282    6859.8317     0.979621   -1078.2725    2282.9101    6330.8904    7396.4338    6852.1709    388.47535    145.77095    200.04011    300.77532 
413150000   4.1315e+08    288.45461    89584.282    6544.0193     0.979621   -1060.0204    2163.4762    5198.8702    7031.2665    7401.9214   -845.39991   -146.52347   -398.46424    288.45471 
413160000   4.1316e+08    295.22637    89584.282    7273.7071     0.979621   -1019.9564    2279.2151    5839.4625     8431.237    7550.4217   -817.45944   -30.377637   -786.59706    295.22672 
413170000   4.1317e+08    293.67923    89584.282    5954.3059     0.979621   -1121.1941     2160.688    5889.0537     6516.211     5457.653   -2083.6128    -295.6606   -561.71001    293.67837 
413180000   4.1318e+08    292.80339    89584.282    6025.4571     0.979621   -1087.4303    2184.6642    5951.9875    6453.0495    5671.3344   -1574.6103    500.94139    246.37763    292.80404 
413190000   4.1319e+08    290.19855    89584.282    5588.9923     0.979621   -1122.1208    2120.8646    5070.2701    5834.2869    5862.4199   -262.91668   -170.16027   -510.56137     290.1986 
413200000    4.132e+08    298.59014    89584.282    6497.3604     0.979621   -1101.9013    2234.8605    5743.1801    7024.0883    6724.8127   -1153.2291   -776.46539    361.96891    298.58919 
413210000   4.1321e+08    292.06532    89584.282     6944.643     0.979621   -1164.0246     2099.822    6980.6446    6211.7563    7641.5282     -803.075   -144.84986    741.55148    292.06668 
413220000   4.1322e+08     285.4831    89584.282    7032.7947     0.979621   -1212.2139     1978.076    7165.1141    6939.7857    6993.4843   -1892.5233    496.45269   -56.096707    285.48406 
413230000   4.1323e+08    295.93272    89584.282     6928.735     0.979621    -1089.999     2217.066    6248.9453      8092.63    6444.6296   -597.09436   -462.84695   -498.92656     295.9329 
413240000   4.1324e+08    292.91567    89584.282    6006.5821     0.979621   -1091.2727    2182.0765    4920.2238    6158.9588    6940.5638   -343.68327    40.564546   -645.98331    292.91601 
413250000   4.1325e+08    282.02772    89584.282    5831.4154     0.979621   -1133.4332    2018.2427    5919.6643    6212.5272    5362.0546    -434.4295    329.19544   -193.96301    282.02873 
413260000   4.1326e+08    292.86844    89584.282    6437.3621     0.979621   -1198.6881    2074.1334    6342.3293    7213.6519    5756.1052   -304.00776    454.11384    222.83886    292.86756 
413270000   4.1327e+08    292.57971    89584.282     6634.678     0.979621   -1159.9819     2109.613    6898.4628    6703.6776    6301.8935   -63.820618    15.602584   -303.70641    292.58159 
413280000   4.1328e+08    296.68046    89584.282     7402.664     0.979621    -1135.152     2180.269    6176.9166    8146.3021    7884.7732   -1158.3059     371.1142   -171.98522    296.67968 
413290000   4.1329e+08    293.33293    89584.282    7065.9195     0.979621   -1102.2256    2175.7866    6569.3414    7130.0833    7498.3336   -1286.2891    424.42566    700.91201    293.33279 
413300000    4.133e+08     289.7642    89584.282    6204.1883     0.979621   -1020.9131    2217.2183    4990.2987    8273.6196    5348.6465   -777.43404    570.28373    16.460689    289.76373 
413310000   4.1331e+08    294.65601    89584.282    5732.5362     0.979621   -1151.7837     2141.014    5188.6841    5525.4873    6483.4372   -833.65522    161.37284    793.30978    294.65505 
413320000   4.1332e+08    293.94879    89584.282    6478.7398     0.979621   -1139.9034    2144.9911    6181.9601    6669.1897    6585.0697   -647.99087   -456.88804   -85.194383    293.94814 
413330000   4.1333e+08    295.58306    89584.282    7073.4914     0.979621   -1094.2896    2208.8679    6351.1962    7066.0908    7803.1872   -732.62611   -77.035244   -402.43774    295.58284 
413340000   4.1334e+08    296.62445    89584.282    6871.2458     0.979621   -1150.6328    2164.1624    6407.0469    7312.7743    6893.9163   -216.81747    345.46338    184.03324    296.62461 
413350000   4.1335e+08    300.68173    89584.282    6912.6278     0.979621   -1117.4206    2242.7148    5977.9544     6750.185     8009.744   -1124.3611    383.33821    1081.4188    300.68249 
413360000   4.1336e+08    296.78646    89584.282    6676.2146     0.979621   -1085.7878    2230.8178    6058.8826    6930.7823    7038.9789     -1119.01    398.36216    333.28654     296.7871 
413370000   4.1337e+08    300.87901    89584.282    6429.7776     0.979621   -1154.3718    2207.9683    5788.2232    7014.7479    6486.3618   -1039.4936    532.67682    598.84826    300.87891 
413380000   4.1338e+08     291.0393    89584.282    6052.3451     0.979621   -1143.5564    2108.8243    5652.3381    6397.2883    6107.4088    335.74178   -315.57495   -58.178812    291.04029 
413390000   4.1339e+08    297.24517    89584.282    5907.7308     0.979621   -1092.9844    2228.7473    4771.6866     6476.527    6474.9789   -645.16651    23.037604    396.46476    297.24645 
413400000    4.134e+08    301.37671    89584.282    6994.2166     0.979621   -1095.1301    2272.7719    6457.0899    7326.2022    7199.3577   -1150.5026   -161.84578    548.06602    301.37816 
413410000   4.1341e+08    291.15802    89584.282    6172.2827     0.979621   -1128.8295    2124.8779    5184.0019    5744.3173    7588.5289   -620.83929    1033.3871    361.19861    291.15917 
413420000   4.1342e+08    295.75542    89584.282    6677.1969     0.979621   -1110.6068    2194.4768    7001.6398    7087.4767    5942.4743   -1113.0803    25.105505   -698.41998    295.75613 
413430000   4.1343e+08    291.50365    89584.282    7709.1196     0.979621   -1106.4618     2151.108    7211.7838    7597.6194    8317.9557   -1229.0832    76.361667    140.00012    291.50402 
413440000   4.1344e+08    295.33399    89584.282    6429.2139     0.979621   -1072.0492     2228.325    6155.9621    7357.4181    5774.2615   -1325.4503   -469.65041    767.88084      295.333 
413450000   4.1345e+08     290.3716    89584.282    7692.5636     0.979621    -1005.697    2239.2222     7716.519    8829.3367    6531.8352   -1423.1884    167.69813    158.80823    290.37188 
413460000   4.1346e+08    294.15625    89584.282    6976.0963     0.979621   -1046.7398     2240.473     6357.374    7534.7418    7036.1732     35.34162   -62.399658    139.56489    294.15655 
413470000   4.1347e+08    292.38479    89584.282    6864.8257     0.979621     -1033.74    2233.6767    7107.6099    6262.2995    7224.5678   -942.94218    168.66864    72.948497    292.38671 
413480000   4.1348e+08    297.76896    89584.282    6033.6906     0.979621   -1126.5759    2201.0092    5920.0049    5799.1715    6381.8953   -1399.1161   -604.52063    118.60571    297.76877 
413490000   4.1349e+08    296.06343    89584.282    6425.5867     0.979621   -1143.5564    2164.9693    6431.5286    6427.5965     6417.635   -478.85752    310.88496     576.3622     296.0623 
413500000    4.135e+08    288.37565    89584.282    8036.3749     0.979621   -1143.9134    2078.7009    7353.6568    8404.5246    8350.9433   -159.22261   -150.18619   -402.71032    288.37632 
413510000   4.1351e+08    294.14235    89584.282      6967.71     0.979621   -1161.2693    2125.7881    7845.6673    6492.7955    6564.6673   -735.16631    564.55705     63.29348    294.14336 
413520000   4.1352e+08    296.09127    89584.282    6121.1748     0.979621   -1148.3992    2160.4376    6053.5066    6505.7816    5804.2362   -457.01034    187.07717     166.5292    296.09152 
413530000   4.1353e+08    295.66446    89584.282     5591.945     0.979621   -1109.5737    2194.4935    5398.9445    6097.4498    5279.4408   -1215.9735    593.09021    127.27196     295.6647 
413540000   4.1354e+08    292.34725    89584.282    7126.3167     0.979621   -1129.9332     2137.064    7434.1682     6703.801     7240.981   -289.44589    797.69418    -457.6036    292.34644 
413550000   4.1355e+08    292.54134    89584.282    6220.9065     0.979621   -1070.0471     2199.119    5932.4465    6579.4443    6150.8288   -705.08395    49.335375    1200.1428     292.5434 
413560000   4.1356e+08    287.36704    89584.282    6012.6577     0.979621   -1086.4364    2124.9066    6430.0869    5778.7548    5829.1314   -1258.8687    409.56619     457.1578    287.36614 
413570000   4.1357e+08    304.21269    89584.282     7779.547     0.979621   -1125.6876    2273.9065    8670.0733    7633.4809     7035.087   -800.84295   -127.75036    764.06218    304.21368 
413580000   4.1358e+08    288.09186    89584.282    5969.7108     0.979621   -1188.4206    2031.0223    5429.0633    6159.0247    6321.0445   -1068.0732    417.28552    537.84554     288.0914 
413590000   4.1359e+08    292.48815    89584.282    7047.2667     0.979621   -1123.6617    2144.9101    7640.1071    6455.4131    7046.2799   -1089.7981    248.03015   -329.67497     292.4886 
413600000    4.136e+08    290.25651    89584.282    6266.2476     0.979621    -1098.544    2145.0891    6168.5062    6623.2328    6007.0039   -1246.4819   -337.71061    87.216806    290.25664 
413610000   4.1361e+08    296.91925    89584.282    7114.8453     0.979621   -1132.8085     2185.281    7726.7968    7658.3463    5959.3927   -487.16498   -698.16016    -294.1188    296.92071 
413620000   4.1362e+08    297.21834    89584.282    7510.1804     0.979621   -1150.9281    2170.5038    7125.4735    7736.7014    7668.3664   -1228.9912    43.930734    319.36621    297.21793 
413630000   4.1363e+08    294.27066    89584.282    7083.2964     0.979621   -1148.9347    2139.5567      7435.37    6469.6324    7344.8868   -1395.6765    363.33854    351.74938     294.2708 
413640000   4.1364e+08    290.59251    89584.282    7410.7436     0.979621   -1178.0745    2069.3133    6890.3477    6976.0125    8365.8707   -782.80228    48.326874   -99.697372    290.59147 
413650000   4.1365e+08    289.05842    89584.282    5714.0827     0.979621   -1127.2642    2102.9801    4472.3622    5842.5079     6827.378   -1593.7419   -245.05112    220.23069    289.05985 
413660000   4.1366e+08    292.05191    89584.282    6268.0496     0.979621   -1089.7789    2173.9178    6232.1186    6916.9879    5655.0422   -817.87243    -358.7148   -805.76428    292.05357 
413670000   4.1367e+08    283.42995    89584.282    5822.9749     0.979621   -1083.7285    2083.6173    4680.5214    6860.6138    5927.7896   -1255.3665   -205.75112    1260.4516    283.42875 
413680000   4.1368e+08    289.55374    89584.282    6583.9156     0.979621   -1160.9169    2074.8626     5921.419    6901.1344    6929.1933   -745.63582    314.21327    131.01335    289.55217 
413690000   4.1369e+08    292.67293    89584.282    7135.0241     0.979621   -1160.8918    2109.7448    6980.6945    6703.5865    7720.7912   -427.51913   -310.24884    600.10605    292.67339 
413700000    4.137e+08    292.45478    89584.282    6398.8089     0.979621   -1117.8587    2150.3401    5428.1927    6850.1697    6918.0643   -2428.9506   -428.68937   -296.27458    292.45542 
413710000   4.1371e+08    289.73338    89584.282    7317.5127     0.979621   -1071.7703    2166.0167     6850.558    8006.3525    7095.6278   -795.77038    -291.7597    653.87752    289.73278 
413720000   4.1372e+08    289.72053    89584.282    6094.4871     0.979621   -1036.7445    2200.8989    4670.9174    6714.7906    6897.7532   -1528.2135    209.56916   -376.72123    289.72145 
413730000   4.1373e+08    294.84777    89584.282    7972.9797     0.979621    -1124.912    2170.0285    8444.0067     7508.008    7966.9244   -890.34155   -960.59448   -2.2272913    294.84754 
413740000   4.1374e+08    288.50587    89584.282    6429.3908     0.979621   -1153.9981    2070.0714    5644.3637    6807.7812    6836.0275   -1416.1991    325.92416    629.40349    288.50746 
413750000   4.1375e+08     295.7399    89584.282    5567.6293     0.979621   -1105.6638    2199.2464    6097.4539    4678.4121    5927.0219   -1736.4625     557.4755   -26.466606    295.73984 
413760000   4.1376e+08    295.41432    89584.282    5947.1781     0.979621   -1107.2061    2194.0658    5379.7604    7016.4708    5445.3032   -306.90262    30.956791    648.26346    295.41342 
413770000   4.1377e+08    291.90485    89584.282    5943.4573     0.979621   -1056.4643     2205.589    6010.7111    6535.1703    5284.4904   -296.95304   -151.38634   -299.96902    291.90622 
413780000   4.1378e+08    298.23178    89584.282     6974.179     0.979621   -1135.6841     2197.073    6772.7507    8316.8184    5832.9679   -777.81326    277.91399   -45.396532    298.23183 
413790000   4.1379e+08    292.23317    89584.282    7315.2137     0.979621   -1149.5889    2116.1334    6643.7019     8495.797    6806.1422   -758.48621   -87.639994    114.73839     292.2347 
413800000    4.138e+08    284.30216    89584.282    6651.5015     0.979621   -1153.7986    2023.2942    5731.6329    7328.9001    6893.9715   -570.32063    361.31842   -296.06443    284.30286 
413810000   4.1381e+08    299.79323    89584.282    6852.6449     0.979621   -1106.5667    2243.6397    6602.9222    6484.0974     7470.915   -986.80105    787.36395   -224.07459    299.79204 
413820000   4.1382e+08    292.18721    89584.282     5528.329     0.979621   -1156.0466    2109.1621    5254.0904    6106.9583    5223.9385   -1390.0927   -61.741348    1022.7532    292.18766 
413830000   4.1383e+08    295.82137    89584.282    6678.8036     0.979621   -1202.5008    2103.3198    6323.0028    6695.9429    7017.4651   -1130.8907    43.929767    440.03785    295.82087 
413840000   4.1384e+08    299.81774    89584.282    6148.6827     0.979621   -1131.1953     2219.285    5199.6301    7728.7073    5517.7107   -718.03538   -200.28886    196.03883    299.81768 
413850000   4.1385e+08    291.78818    89584.282    6656.6272     0.979621   -1148.8483    2111.9012    5701.0038    7560.8424    6708.0352   -1061.1781   -101.45814   -499.84584    291.78908 
413860000   4.1386e+08    292.15369    89584.282    6056.2125     0.979621   -1163.6582    2101.1759    4944.8785    6202.1844    7021.5746   -366.02805   -150.67842    7.0149533    292.15427 
413870000   4.1387e+08    285.53869    89584.282    5868.1332     0.979621   -1192.8415    1998.0696    5479.3542    6521.1375    5603.9078   -897.35748   -326.38363     1.340168    285.53874 
413880000   4.1388e+08    286.60249    89584.282    7025.2182     0.979621    -1175.595    2027.2041    6387.6159    7130.8803    7557.1585   -2024.6544   -90.123268     526.4873     286.6046 
413890000   4.1389e+08    296.59777    89584.282    6715.2554     0.979621   -1140.9024    2173.5946    5904.7036    7242.6625       6998.4   -1032.7481    728.58467    1141.8195    296.59768 
413900000    4.139e+08     289.2281    89584.282     6672.815     0.979621     -1141.54    2090.6005     5831.454    7118.0167    7068.9742   -764.66097   -449.09058   -537.26556    289.22857 
413910000   4.1391e+08    299.33656    89584.282    6073.3167     0.979621   -1059.9861     2285.117    6169.1062    5734.1564    6316.6874    -987.4556    185.49299   -668.23643    299.33676 
413920000   4.1392e+08    293.17039    89584.282    6908.5074     0.979621    -1128.499    2147.6968    5112.8937    7553.4003    8059.2282   -557.10415   -254.57938   -6.9651488    293.17141 
413930000   4.1393e+08    292.62601    89584.282    6669.8267     0.979621   -1132.4488    2137.6635    6420.2751    7077.9829    6511.2221   -248.70548    95.834367   -366.83788    292.62655 
413940000   4.1394e+08    292.68112    89584.282     6470.183     0.979621   -1073.5779    2197.1503    6060.3339    6519.5725    6830.6427   -645.78369    182.10458   -516.33015    292.68051 
413950000   4.1395e+08    292.32354    89584.282     6787.268     0.979621   -1118.7303    2148.0018    6605.4009    6779.1282    6977.2748   -942.58782    -40.65543   -756.13987    292.32293 
413960000   4.1396e+08    292.39083    89584.282    5876.3712     0.979621   -1066.1197    2201.3644    5921.5634    6210.4992     5497.051    -152.3057    737.21161   -408.42956    292.39132 
413970000   4.1397e+08    293.14167    89584.282    7499.4188     0.979621   -1089.5155    2186.3594      6204.68    9045.0653    7248.5112   -608.75519   -736.33031    526.16271    293.14177 
413980000   4.1398e+08    296.59658    89584.282    7101.8675     0.979621   -1113.9724    2200.5112    6215.9686    7404.9629     7684.671   -537.21188    114.68133   -858.94743    296.59647 
413990000   4.1399e+08    301.93567    89584.282     5899.302     0.979621    -1111.178    2262.9703    6341.4634    5345.9337    6010.5088   -1181.1291    81.781572   -166.88947    301.93773 
414000000     4.14e+08    295.25133    89584.282    5526.0535     0.979621   -1105.6807    2193.7697    4483.7384    6313.8245    5780.5975   -1404.9277   -638.93846    350.14085    295.25175 
414010000   4.1401e+08    290.17791    89584.282    6410.0865     0.979621    -1134.845    2107.9096    5909.6051    7258.7021    6061.9524   -1139.6462   -438.14557    179.30928    290.17831 
414020000   4.1402e+08    291.93146    89584.282    5745.0777     0.979621    -1177.908    2084.4426    5642.2069    5722.0993     5870.927   -1343.9609    439.40909   -505.57083    291.93153 
414030000   4.1403e+08    296.16026    89584.282    7745.4977     0.979621   -1080.6598    2228.9479    7177.0412    8536.2006    7523.2515   -1047.5454    299.78516    56.550177    296.15906 
414040000   4.1404e+08    295.28306    89584.282    7432.0432     0.979621    -1089.018    2210.7871    7408.9091    7216.9366    7670.2841   -775.54975    717.91736    75.884908    295.28259 
414050000   4.1405e+08    286.60035    89584.282     6721.017     0.979621   -1088.1311    2114.6441    6185.1276    7393.8658    6584.0576   -1310.2785   -223.35119    323.47749    286.60145 
414060000   4.1406e+08    290.81837    89584.282    6592.5559     0.979621   -1136.1188     2113.793    7035.4174    6456.9998    6285.2504   -918.26088   -5.9306317   -205.79387    290.81855 
414070000   4.1407e+08    286.37967    89584.282    6405.1922     0.979621   -1122.9472    2077.3619    6819.8775    6445.2818    5950.4174    -822.9656    -649.1216   -369.47051     286.3811 
414080000   4.1408e+08    290.93983    89584.282    6615.6957     0.979621   -1182.2082    2069.0609    5489.5781    6975.1086    7382.4003   -1244.6322    321.69633   -100.24184    290.93969 
414090000   4.1409e+08    294.57693    89584.282    6445.8257     0.979621   -1223.5629    2068.3511    6151.1885    6760.5866    6425.7019   -574.50545   -321.40793    754.46509     294.5777 
[...]
609080000   6.0908e+08    292.70321    89584.282    6439.5869     0.979621   -1053.8056    2217.1695    4779.0041     7333.223    7206.5336   -1132.5326   -173.79974    323.56144    292.70202 
609090000   6.0909e+08    291.57561    89584.282    6425.0268     0.979621    -1103.195     2155.179    5682.5486    7261.9816    6330.5503   -411.36353   -93.390262    279.43774    291.57455 
609100000    6.091e+08    295.49906    89584.282    6061.0075     0.979621   -1003.9222    2298.2966    5820.3162    7108.9741    5253.7322    -1454.346    265.71196   -87.520093    295.50099 
609110000   6.0911e+08    291.87328    89584.282    6736.0183     0.979621   -1039.0562    2222.6443    4872.9751    7900.6766     7434.403    258.96281    -964.7857    182.24501    291.87356 
609120000   6.0912e+08    293.77526    89584.282    6784.5138     0.979621   -993.61501    2289.3402    6361.6479    6746.9352    7244.9582   -359.56675    268.63639    466.96851    293.77446 
609130000   6.0913e+08    287.68903    89584.282    6444.0805     0.979621   -985.50987    2229.4314    6611.2794    6769.8279     5951.134   -487.87228     138.9296   -26.596807    287.69101 
609140000   6.0914e+08    293.24564    89584.282    6493.7277     0.979621   -1075.1227     2201.914    5680.0958    7681.7294    6119.3578   -941.76957    260.51038   -128.36529    293.24509 
609150000   6.0915e+08    288.32932    89584.282    7116.7906     0.979621   -1138.7624    2083.3342    6965.0752    7482.9025    6902.3943   -618.58294    460.04926    466.52527    288.32935 
609160000   6.0916e+08    289.77662    89584.282    6196.4472     0.979621   -1105.6606    2132.6097    5543.8179    6841.8564    6203.6673   -628.75752    48.517745   -357.46561    289.77741 
609170000   6.0917e+08    295.92117    89584.282    6543.2888     0.979621   -1063.1777    2243.7582    5840.1177     6254.322    7535.4266   -1216.9564   -135.10436   -373.42091    295.92196 
609180000   6.0918e+08    288.34626    89584.282    6408.1072     0.979621   -1146.5234    2075.7625    5944.5273    6896.7002    6383.0941   -1039.7444   -1019.8882    239.22365    288.34746 
609190000   6.0919e+08    290.64879    89584.282    6710.9737     0.979621   -1137.0977    2110.9191    6983.4222    6270.6342    6878.8646   -1188.8061    50.351017     161.2644    290.64899 
609200000    6.092e+08    294.62719    89584.282    7133.2344     0.979621   -1120.2467     2172.229    6414.2598     7488.501    7496.9425   -930.76753   -250.85712   -83.810715    294.62803 
609210000   6.0921e+08    294.53541    89584.282    6544.3424     0.979621   -1141.0794    2150.3706    4399.6467    8210.7332    7022.6471   -1139.9077   -629.52746    190.51207     294.5357 
609220000   6.0922e+08     294.6268    89584.282    6058.4828     0.979621    -1022.093    2270.3782    5242.5758     6282.406    6650.4665   -1704.4666    534.89397   -142.52031    294.62765 
609230000   6.0923e+08    296.75594    89584.282    6863.5637     0.979621   -1152.2507    2164.0138    6019.6439    7195.4987    7375.5486   -1252.1343    445.60949    189.50214    296.75433 
609240000   6.0924e+08    288.12686    89584.282    6760.0563     0.979621   -1171.1965    2048.6376    5621.9496    7565.6675    7092.5519   -970.86499    95.402226    364.91079    288.12637 
609250000   6.0925e+08    299.26895    89584.282     6529.783     0.979621   -1073.2475    2271.1001    7254.4425    6503.2081    5831.6984   -595.31293   -717.45518    291.04271    299.26797 
609260000   6.0926e+08     291.3305    89584.282    6089.5003     0.979621   -1039.4891    2216.1458    5232.8208    6533.7353    6501.9447   -995.74406    -619.7029     98.45884    291.33122 
609270000   6.0927e+08    292.88249    89584.282    6101.0711     0.979621   -1072.8024     2200.176    4805.6617    7168.4666    6329.0851    -1426.585   -207.82769    1365.7787    292.88272 
609280000   6.0928e+08    300.30371    89584.282    6628.2485     0.979621   -978.90949    2377.0015    6549.1443    6389.8694    6945.7318    -194.9404   -251.99836    699.61249    300.30226 
609290000   6.0929e+08    291.38198    89584.282    6855.9354     0.979621   -1048.2377    2207.9725     7485.534    6833.7537    6248.5186   -1174.9624    574.93059   -362.09991    291.38212 
609300000    6.093e+08    292.48206    89584.282    6467.5065     0.979621   -966.80807    2301.6956    5851.0964    6122.4242     7428.999   -1075.9488    505.49519    145.22101    292.48237 
609310000   6.0931e+08    280.25876    89584.282      5968.96     0.979621   -1057.0728    2074.8347     4908.697     6392.568     6605.615   -561.39728   -47.912374    133.64135    280.25782 
609320000   6.0932e+08    296.56555    89584.282    6763.7521     0.979621   -1023.2614    2290.8755    4795.2755    7732.5697    7763.4112   -841.60164   -201.48289    131.20234    296.56679 
609330000   6.0933e+08     295.3032    89584.282    5472.1147     0.979621   -1098.8511    2201.1789    3444.7754    6841.9207    6129.6479   -900.31347    -312.1559    163.97475    295.30195 
609340000   6.0934e+08    296.01967    89584.282    5673.7289     0.979621   -1043.3002    2264.7365    4405.9525    7294.3696    5320.8647   -850.92637    212.93874   -473.06665    296.01967 
609350000   6.0935e+08    295.91175    89584.282    6517.8192     0.979621   -1057.0192    2249.8114    6129.9472    7290.6867    6132.8236    -1038.723   -244.97495   -481.74568    295.91149 
609360000   6.0936e+08    292.64892    89584.282    6682.2679     0.979621    -1039.572    2230.7963    5244.9027    8179.4167    6622.4843   -840.38544    628.41541   -159.37841    292.65055 
609370000   6.0937e+08     291.2305    89584.282    6698.4883     0.979621   -1070.1493    2184.3681    5156.9742    7184.9478    7753.5428   -816.17335    516.83367   -90.714053    291.23131 
609380000   6.0938e+08    294.33132    89584.282    7147.7162     0.979621   -1101.4338    2187.7355    6577.0669    7341.1116      7524.97   -470.89457    163.70452     51.91638    294.33411 
609390000   6.0939e+08    302.34738    89584.282    6859.8863     0.979621   -1096.1771    2282.5721    5955.3157    6935.2402    7689.1029   -1228.6763    -415.7018    886.95657    302.34883 
609400000    6.094e+08    294.24467    89584.282    6375.6341     0.979621   -1140.8537    2147.3472    5659.4386    8046.7752    5420.6885   -859.15218   -304.33382    865.07222    294.24425 
609410000   6.0941e+08    292.66837    89584.282    7047.8104     0.979621   -994.70178    2275.8839     6229.268    7209.6451    7704.5182   -706.62739   -358.10015    131.91053    292.66862 
609420000   6.0942e+08    298.01987    89584.282    6772.7231     0.979621   -1080.0928    2250.2961    5919.6202    7710.6638    6687.8852   -1746.6098    147.09488   -455.71559    298.01872 
609430000   6.0943e+08     289.7106    89584.282    6141.0179     0.979621   -1092.0399    2145.4926    5070.1598    6663.4859    6689.4078    -176.3812    714.22995    379.45906    289.71061 
609440000   6.0944e+08    297.85471    89584.282     7567.902     0.979621   -1081.0005    2247.5429    6611.5971    8590.6864    7501.4224   -955.17706   -322.86977   -518.67508    297.85413 
609450000   6.0945e+08    291.38044    89584.282    7490.4886     0.979621    -1104.446     2151.747    7320.0809     7752.419    7398.9659   -464.75489    7.0347571    338.10342    291.38084 
609460000   6.0946e+08     293.4491    89584.282     6411.872     0.979621   -1012.4045    2266.9059    5525.0671    6607.5296    7103.0192   -1443.9035   -121.29783    75.314892    293.44978 
609470000   6.0947e+08    287.22363    89584.282    6444.1962     0.979621   -1075.8647    2133.8758    5667.7399     6832.775    6832.0739   -1324.1379    724.60385    1466.1685    287.22285 
609480000   6.0948e+08     288.4631    89584.282    7116.8797     0.979621   -956.52674    2267.0648     6864.425    7024.1423    7462.0719   -359.67036   -89.706387   -270.62296    288.46251 
609490000   6.0949e+08    296.60591    89584.282     6820.859     0.979621   -1071.8923    2242.6956    5382.3857    7355.9049    7724.2865   -387.21843   -850.90959   -471.97783    296.60675 
609500000    6.095e+08    292.69696    89584.282    6192.8926     0.979621   -1088.4788    2182.4264    5817.2493    6715.1263    6046.3021   -720.02042    497.71317   -643.09735      292.695 
609510000   6.0951e+08    291.99358    89584.282    6299.7862     0.979621   -1042.8229    2220.2219    4761.8431    7448.9933    6688.5222   -1010.0619   -176.11263    110.36621    291.99293 
609520000   6.0952e+08    292.26542    89584.282    6925.3988     0.979621   -1085.0185    2181.0641    6002.7647      7117.38    7656.0516   -839.88632   -391.99072    75.551076    292.26494 
609530000   6.0953e+08    295.19708    89584.282      6920.94     0.979621   -1072.0985    2226.7456    6123.0048    7869.3891    6770.4262   -434.89443    -806.4792     153.0716    295.19717 
609540000   6.0954e+08    294.01779    89584.282    6808.7434     0.979621   -1036.9644    2248.7012    5785.0129     7026.971    7614.2462   -754.91203    32.054338   -245.42071    294.01831 
609550000   6.0955e+08    298.13635    89584.282    7024.5143     0.979621   -1050.3973    2281.2934    5719.5252    6875.5576    8478.4601   -544.28055    183.22265    182.65265    298.13623 
609560000   6.0956e+08    297.21651    89584.282    7582.1027     0.979621    -1101.586    2219.8254    6867.8724    8087.7546    7790.6813   -798.06164   -392.74499   -667.16144    297.21511 
609570000   6.0957e+08     289.4771    89584.282    6351.2576     0.979621   -1066.3518    2168.5712    4922.5957    6762.3967    7368.7804   -268.17087    789.00017     411.6203    289.47938 
609580000   6.0958e+08    288.97497    89584.282    7053.5962     0.979621   -1030.2755    2199.0363    6160.5374    6929.9763     8070.275   -1220.6523   -809.14726    338.77097    288.97414 
609590000   6.0959e+08    290.63783    89584.282    6779.5209     0.979621   -1012.6282    2235.2661    5639.7094    7482.4452     7216.408    -1065.868   -402.70283    255.60791    290.63501 
609600000    6.096e+08    288.61153    89584.282    7688.2826     0.979621   -1021.0264    2204.2239    8157.4119    7134.3022    7773.1336   -483.64269   -404.14231    426.48754    288.61171 
609610000   6.0961e+08    290.09277    89584.282    6715.9475     0.979621   -1138.9953    2102.8079    5965.6542    7046.5068    7135.6816   -853.85519   -564.07316    596.08446    290.09406 
609620000   6.0962e+08    297.83287    89584.282     6467.964     0.979621   -1064.9854    2263.3139    5655.9969     7344.212    6403.6831   -1442.6706    -545.5985    -605.1039    297.83233 
609630000   6.0963e+08    301.25717    89584.282    6485.8924     0.979621   -1079.3482    2287.2178    5635.0317    6762.2097    7060.4357   -1598.9406    39.992103   -355.91615    301.25714 
609640000   6.0964e+08    289.66274    89584.282    7062.6663     0.979621   -1062.5748    2174.4228    7674.3226    6568.7656    6944.9108   -257.09877   -490.05402   -698.56341     289.6634 
609650000   6.0965e+08    291.88676    89584.282    7661.7136     0.979621    -1053.044    2208.8071    6684.9348    7906.3284    8393.8777   -911.42755   -492.26277   -176.94156     291.8878 
609660000   6.0966e+08    284.11483    89584.282    7410.3859     0.979621   -1130.9158    2044.0836    6815.7916    8240.0396    7175.3265   -124.38626   -154.15531   -130.03716    284.11377 
609670000   6.0967e+08    291.11606    89584.282    7032.6633     0.979621   -1054.0111    2199.2275    6006.0927    7927.7875    7164.1096   -317.22392     -95.0254    47.049969    291.11809 
609680000   6.0968e+08    289.20777    89584.282    5685.6997     0.979621   -1082.0941    2149.8192    4527.0235    6657.2109    5872.8648   -829.57099   -32.069485   -363.44737    289.20719 
609690000   6.0969e+08    284.71807    89584.282    6784.9679     0.979621    -1102.894    2078.8466    5165.5739    7531.4425    7657.8872   -556.51851    269.38014   -843.03257    284.71561 
609700000    6.097e+08    295.61646    89584.282     5713.298     0.979621   -1032.8742    2270.6565    5696.4375    5600.2032    5843.2532   -694.94302    951.96961    838.84612    295.61775 
609710000   6.0971e+08    291.94027    89584.282     7025.015     0.979621   -1003.4516    2258.9974    6723.3283    7803.3372    6548.3796   -623.06607   -141.04704    1021.5463    291.94037 
609720000   6.0972e+08    294.80874    89584.282    7030.6176     0.979621   -1060.4443    2234.0602    7133.7811    7352.6895    6605.3821   -563.78336   -197.38872    840.71723    294.80866 
609730000   6.0973e+08    288.12673    89584.282    5833.9314     0.979621   -1058.4602    2161.3724    5124.3998    6522.5971    5854.7972   -814.96243   -948.21312    320.69666    288.12527 
609740000   6.0974e+08    296.65184    89584.282    6481.2808     0.979621   -1082.3931    2232.7081    5114.4646    7641.1558    6688.2221   -500.16276   -763.89566   -21.544998    296.65157 
609750000   6.0975e+08    298.02593    89584.282    5878.9462     0.979621   -1097.0497    2233.4071    4960.0136    6750.4632    5926.3617   -1191.8428    117.10667    24.431269    298.02512 
609760000   6.0976e+08    287.95969    89584.282    6678.3954     0.979621   -1083.1587    2134.8073     6311.908    6870.3958    6852.8822   -519.69776    183.47817    561.00467    287.96098 
609770000   6.0977e+08    297.34976    89584.282    6803.5887     0.979621   -1138.4164     2184.484    5939.9259    6546.6864    7924.1536    -459.5492   -46.798045    39.952569    297.34962 
609780000   6.0978e+08    299.42512    89584.282    7148.4496     0.979621    -1201.857    2144.2358     6383.071    8298.0197    6764.2581   -351.74372   -888.96658   -284.90117     299.4257 
609790000   6.0979e+08    289.57494    89584.282    6759.4672     0.979621   -1097.4957    2138.5208     5981.089    7468.8974    6828.4152   -776.17743   -84.174994   -104.74654    289.57357 
609800000    6.098e+08    295.82615    89584.282    6641.1843     0.979621   -1069.9563    2235.9177    5822.7073    7425.1373    6675.7082   -410.29144   -699.53859      283.182    295.82581 
609810000   6.0981e+08    288.28094    89584.282     8122.091     0.979621   -1151.2916    2070.2643    8694.8872    7370.2987    8301.0873   -570.09205   -708.25617   -185.38327    288.28206 
609820000   6.0982e+08    294.74217    89584.282    6575.0504     0.979621   -1038.5614    2255.1991     5542.138     6999.274    7183.7391   -499.63472     -83.0337   -548.70818    294.74384 
609830000   6.0983e+08    296.70779    89584.282    6626.2052     0.979621   -1059.8244     2255.902    5985.1399    6617.4498     7276.026   -689.63646   -856.36274   -429.34423    296.70747 
609840000   6.0984e+08     297.2894    89584.282    8056.7986     0.979621     -1101.64     2220.586    7930.2404    8920.7706    7319.3849   -836.69352   -231.85584   -415.48023    297.28856 
609850000   6.0985e+08    286.80048    89584.282    7722.1904     0.979621   -1125.5249    2079.4868    6734.2903    8068.7407    8363.5402    373.93673   -375.93274    24.597499    286.80209 
609860000   6.0986e+08    298.82526    89584.282    6728.8571     0.979621   -1071.6881    2267.7012    6698.9152     6809.874    6677.7821   -671.07469    360.79844    276.77125    298.82466 
609870000   6.0987e+08    291.34002    89584.282    6875.8799     0.979621    -1006.631    2249.1103    6616.1552    7558.6478    6452.8367   -1380.7324   -136.88885   -386.20602    291.34046 
609880000   6.0988e+08    292.63654    89584.282    6908.4282     0.979621   -1096.9503    2173.2797    5200.2471    8183.1904     7341.847     -625.491   -202.68371   -122.28398    292.63832 
609890000   6.0989e+08    293.37845    89584.282    7095.7972     0.979621   -1073.5756    2204.9453    6805.2897    7706.1219    6775.9801   -1016.2898    311.02914    866.93444    293.37874 
609900000    6.099e+08      289.577    89584.282    6925.0767     0.979621   -1105.4419    2130.5975    5762.3035     8088.444    6924.4825    -1385.938   -569.38319   -874.18101    289.57734 
609910000   6.0991e+08    295.35187    89584.282    6857.8862     0.979621   -1010.8082    2289.7657    6212.9006    7041.1529     7319.605     -123.206   -886.29153     444.4667    295.35039 
609920000   6.0992e+08    291.15517    89584.282    6807.8909     0.979621   -1100.9644    2152.7111    6296.1923    7028.0195    7099.4609   -336.99348   -515.99895   -384.70085     291.1554 
609930000   6.0993e+08    281.72207    89584.282    6770.2415     0.979621   -1136.6345    2011.6256    6016.5755    7690.9445    6603.2046   -543.94785   -582.29892    196.14951    281.72312 
609940000   6.0994e+08    291.56598    89584.282     7018.677     0.979621   -1048.5223    2209.7441    6493.2057    6633.1754    7929.6499   -1553.3654    43.695774   -200.42406    291.56564 
609950000   6.0995e+08    290.99682    89584.282    6559.9112     0.979621   -1036.6756    2215.2304     5702.574    7777.6096      6199.55   -118.06464    208.79181    346.46295    290.99607 
609960000   6.0996e+08    287.11335    89584.282    6929.1957     0.979621   -1075.5504    2132.9577    6537.2978    7140.4269    7109.8625   -363.85161   -55.087024   -91.780336    287.11353 
609970000   6.0997e+08    285.70776    89584.282    7888.3791     0.979621   -1103.1413    2089.6591    8561.2865    8189.1833    6914.6674   -550.10016   -55.427957    701.75798    285.70734 
609980000   6.0998e+08    289.68818    89584.282    6804.8139     0.979621    -1026.868    2210.4138    6463.2936    7178.4775    6772.6704   -1370.9707   -338.36279    342.39275    289.68934 
609990000   6.0999e+08    292.47391    89584.282    6294.7965     0.979621   -996.68258      2271.73    4553.9606     6572.904    7757.5249   -876.82295    755.35633   -585.61166    292.47419 
610000000      6.1e+08    295.81592    89584.282    6677.3075     0.979621   -962.03522    2343.7245    5715.3216     7855.406     6461.195   -660.96829   -30.440991    -165.3536    295.81463 
Loop time of 31276.1 on 48 procs for 100000000 steps with 3750 atoms

Pair  time (%) = 11546.8 (36.9189)
Bond  time (%) = 2178.5 (6.96538)
Neigh time (%) = 6005.71 (19.2023)
Comm  time (%) = 8135.43 (26.0117)
Outpt time (%) = 0.962698 (0.00307807)
Other time (%) = 3408.7 (10.8987)

Nlocal:    78.125 ave 87 max 70 min
Histogram: 2 5 7 5 10 6 2 4 4 3
Nghost:    1424.21 ave 1467 max 1391 min
Histogram: 5 4 5 9 4 8 7 2 2 2
Neighs:    7241.12 ave 8271 mGenerated thermo.dat
Done!
stress
average  843.773
square average  720432
number of blocks  600
variance  3.75923850245409852651
pxx
average  6118.32
square average  3.74569*10^07
number of blocks  600
variance  6.19951309916082576436
pyy
average  7095.01
square average  5.03514*10^07
number of blocks  600
variance  4.51536264693472138100
pzz
average  6788.41
square average  4.60925*10^07
number of blocks  600
variance  4.08037414542669930718
xx
average  2183.19
square average  4.76631*10^06
number of blocks  600
variance  .11955542647659285565
yy
average  2183.08
square average  4.76583*10^06
number of blocks  600
variance  .11751879282338917329
zz
average  2182.31
square average  4.76249*10^06
number of blocks  600
variance  .14755733348995795220
xx
average  4447.29
square average  1.98015*10^07
number of blocks  600
variance  6.20640205755315210710
yy
average  5424.07
square average  2.94327*10^07
number of blocks  600
variance  4.50270938806107420465
zz
average  5118.05
square average  2.62044*10^07
number of blocks  600
variance  4.07516819693780655777
pressure, stress.strain, ktensor, virial are all concatenated
averages computed will all accumulated data until now
ax 6531 min
Histogram: 4 6 11 5 6 3 4 4 3 2

Total # of neighbors = 347574
Ave neighs/atom = 92.6864
Ave special neighs/atom = 6.26667
Neighbor list builds = 11143217
Dangerous builds = 0
System init for write_restart ...

real	1041m41.306s
user	0m0.071s
sys	0m0.314s
