LAMMPS (10 Feb 2015)
Read molecule SQL:
  30 atoms with 4 types
  29 bonds with 1 types
  34 angles with 1 types
  31 dihedrals with 2 types
  6 impropers with 1 types
Reading restart file ...
  restart file = 10 Feb 2015, LAMMPS = 10 Feb 2015
  triclinic box = (112.339 112.339 112.339) to (157.661 157.661 157.661) with tilt (0 0 0)
  3 by 4 by 4 MPI processor grid
  3750 atoms
  3625 bonds
  4250 angles
  3875 dihedrals
  750 impropers
250 atoms in group endatoms
60 atoms in group samplechains
WARNING: New thermo_style command, previous thermo_modify settings will be lost (../output.cpp:665)
Neighbor list info ...
  1 neighbor list requests
  update every 1 steps, delay 0 steps, check yes
  master list distance cutoff = 10.3
Setting up run ...
Memory usage per processor = 2.18354 Mbytes
Step Time Temp Volume Press Density PotEng TotEng Pxx Pyy Pzz Pxy Pyz Pxz myT 
       0            0    293.35911    93093.952    5225.9065     0.942689   -1347.9981    1930.3066     4447.768    5632.8427    5597.1089    310.59977    124.99316    693.66253    293.35911 
    1000         1000    294.32794    93093.952    4345.5238     0.942689   -1451.4139    1837.7176    4647.4766    3769.8366    4619.2583    14.458303   -670.88119    379.98426    294.32794 
    2000         2000    296.04327    93093.952    3812.5054     0.942689   -1360.2993    1948.0011    4126.7886    3771.6803    3539.0473   -405.66409    464.13713    444.03507    296.04327 
    3000         3000    287.81177    93093.952    4149.5682     0.942689   -1443.6526    1772.6604    2918.0048    5377.5834    4153.1163   -54.568252   -435.87452   -38.182521    287.81177 
    4000         4000    303.19726    93093.952    3991.9994     0.942689   -1344.3789    2043.8678    2838.0149    3838.7092    5299.2742    509.06636   -125.43879    22.268195    303.19726 
    5000         5000    285.00325    93093.952    3487.5071     0.942689   -1429.3584    1755.5691    3673.6861    2950.7261    3838.1091    405.58742    205.58423    117.48461    285.00325 
    6000         6000    297.71727    93093.952    3185.2806     0.942689   -1344.4168    1982.5906     2826.764     4473.808    2255.2697     -149.417    415.03239    294.14774    297.71727 
    7000         7000    291.34127    93093.952    3977.3496     0.942689    -1483.279    1772.4763    4403.9327    3266.0105    4262.1055   -311.37992   -104.31456    375.71987    291.34127 
    8000         8000    295.08566    93093.952    4211.5125     0.942689   -1375.5213    1922.0777    4066.1409    3969.4722    4598.9244    189.62628   -39.834467    106.83796    295.08566 
    9000         9000    297.20937    93093.952     3561.223     0.942689   -1410.1869    1911.1447    3508.9263    4443.2993    2731.4435    90.782947   -373.00355   -373.45031    297.20937 
   10000        10000    286.85594    93093.952    3880.3657     0.942689   -1393.5851    1812.0463    2734.0659    4258.3888    4648.6423    520.85588    419.53938   -676.24354    286.85594 
   11000        11000    301.15466    93093.952    3578.7926     0.942689   -1344.2404    2021.1801    4039.6347    3620.7291    3076.0139   -347.59668    177.77064    752.35363    301.15466 
   12000        12000    284.18982    93093.952    3773.8055     0.942689   -1393.9376    1781.8997     3429.121    4150.4967     3741.799    39.436115    669.95588   -48.677092    284.18982 
   13000        13000    293.43965    93093.952    3834.4785     0.942689   -1401.7796    1877.4251    3307.0112    3979.4893    4216.9349   -201.05237   -356.22537    34.121744    293.43965 
   14000        14000    294.60495    93093.952    3716.1756     0.942689    -1413.219     1879.008    3346.2589    4358.7031    3443.5649   -122.68462    1072.0013   -679.78076    294.60495 
   15000        15000    293.01176    93093.952    3598.6211     0.942689   -1337.4358    1936.9872    3924.0133    3862.6443    3009.2057    126.21885    378.02285   -482.05993    293.01176 
   16000        16000    294.36083    93093.952     4177.396     0.942689   -1350.7959    1938.7031    4295.1698    4033.8321    4203.1862   -315.36655   -922.22638   -225.21974    294.36083 
   17000        17000    288.87002    93093.952    4588.1266     0.942689   -1432.6979     1795.441    5327.7371    4999.3282    3437.3146   -391.02746   -251.51432    108.27508    288.87002 
   18000        18000    294.71846    93093.952    3270.8585     0.942689   -1357.6463    1935.8493    3109.9016     3237.004    3465.6698   -149.12181    1634.8191   -223.46794    294.71846 
   19000        19000    296.82359    93093.952    5533.7633     0.942689   -1423.1111    1893.9094    5383.3688    6205.1579    5012.7631    315.97183    120.08338    164.75468    296.82359 
   20000        20000    296.65068    93093.952    3249.2214     0.942689   -1469.3271    1845.7611    3097.0707    2933.2765     3717.317    -356.7691    -605.1063   -398.32818    296.65068 
   21000        21000    298.99444    93093.952    3886.8606     0.942689   -1291.8708     2049.409    3379.1977    4308.5379    3972.8462   -177.65883    458.57614    85.423837    298.99444 
   22000        22000    293.51411    93093.952    4913.5458     0.942689   -1485.8208    1794.2161    5412.6884    5029.2683    4298.6808   -677.34953    209.92675    569.52638    293.51411 
   23000        23000    306.74279    93093.952    4084.2744     0.942689   -1395.7492     2032.119    4653.8313     3582.427    4016.5649   -540.83419    190.50679   -514.38538    306.74279 
   24000        24000    291.47096    93093.952    4027.7798     0.942689   -1464.9586     1792.246    3564.4429    4217.3489    4301.5476    644.72872    13.536944    356.50861    291.47096 
   25000        25000    296.29883    93093.952    3852.9718     0.942689   -1332.4992    1978.6571    3752.6132    3364.1629    4442.1393   -728.97472   -1.7215573    558.84799    296.29883 
   26000        26000    299.45496    93093.952    4236.0525     0.942689   -1394.4661    1951.9602    4715.9978    3976.7367    4015.4231   -578.53488   -442.25541   -476.93093    299.45496 
   27000        27000    291.36932    93093.952    4340.7034     0.942689   -1380.6211    1875.4477    4818.8402    3461.1633    4742.1067   -494.10365    283.76115    411.40235    291.36932 
   28000        28000     297.3562    93093.952    4305.3235     0.942689   -1415.9761    1906.9963    3585.6522    4409.8439    4920.4744   -760.92448    241.38157    526.46553     297.3562 
   29000        29000    291.54355    93093.952    4170.1988     0.942689   -1370.1052    1887.9105    3363.9761    4777.5328    4369.0875   -493.25587    -386.3361    395.59096    291.54355 
   30000        30000    290.81777    93093.952    3433.5709     0.942689   -1451.7368    1798.1683    3514.7734    4213.3666    2572.5728    -91.74398   -455.47577   -132.05116    290.81777 
   31000        31000    302.99548    93093.952    4793.1937     0.942689   -1337.2125    2048.7792    4166.3794    5132.5295    5080.6723   -47.089338   -1191.9235    111.90355    302.99548 
   32000        32000    286.02955    93093.952    3627.6496     0.942689   -1410.2015     1786.195    3529.9299    3640.8769     3712.142   -65.163668    173.08271   -8.9065653    286.02955 
   33000        33000     301.2109    93093.952    4673.8841     0.942689   -1429.3596    1936.6893    4600.7744    4174.9701    5245.9077   -204.40401    69.765001    241.98431     301.2109 
   34000        34000    293.43832    93093.952    3644.9703     0.942689   -1361.8016    1917.3883    3571.2268     3157.067     4206.617    -345.6712   -685.53977   -16.675673    293.43832 
   35000        35000     290.0924    93093.952    3922.2214     0.942689    -1420.609    1821.1901    4082.3673    3996.3389    3687.9581   -478.27421    472.23877    650.48657     290.0924 
   36000        36000    294.35926    93093.952    2933.5736     0.942689   -1430.9839    1858.4975    2311.2585    3335.5072     3153.955     250.3819     455.8383   -82.712874    294.35926 
   37000        37000    296.86185    93093.952    4547.0596     0.942689   -1330.9502    1986.4979    4247.3394    5157.6841    4236.1554    -220.9996   -1020.2399   -187.61749    296.86185 
   38000        38000    296.35518    93093.952    3556.1738     0.942689   -1432.8826    1878.9034    3155.0386    3530.9458    3982.5371   -151.76433   -587.86316    69.618951    296.35518 
   39000        39000    290.21197    93093.952    3674.8321     0.942689   -1394.5881    1848.5472    3994.1212    3679.5643     3350.811    303.68853    768.89027   -14.406919    290.21197 
   40000        40000    294.82538    93093.952    3618.5519     0.942689   -1420.9485    1873.7418    4379.7054    3151.3739    3324.5765   -305.64009    227.34265    81.175884    294.82538 
   41000        41000    293.53219    93093.952    5273.9889     0.942689   -1353.8333    1926.4055    5330.0637    6074.2341    4417.6688   -461.58967   -166.51953   -421.61249    293.53219 
   42000        42000    285.84415    93093.952    3354.7445     0.942689   -1396.9222    1797.4025    2892.9502    3302.6766    3868.6066    225.14197    22.737772   -122.26079    285.84415 
   43000        43000    294.50378    93093.952    3911.3001     0.942689   -1314.7316    1976.3649    3625.1357     4200.444    3908.3205   -245.42286   -93.364001    135.90405    294.50378 
   44000        44000    291.61966    93093.952    3875.3231     0.942689   -1483.6096    1775.2567     3808.018    3787.2597    4030.6917   -1464.6591   -411.01144   -148.30182    291.61966 
   45000        45000    303.00862    93093.952    3984.8301     0.942689   -1353.6083    2032.5303    4792.8956    3172.6194    3988.9752   -674.99945   -646.12972   -578.70053    303.00862 
   46000        46000     296.0921    93093.952    3670.2902     0.942689   -1416.6317    1892.2144    2670.9869    4494.3435    3845.5401   -1248.0629    173.12571    10.068466     296.0921 
   47000        47000    290.50542    93093.952     3688.593     0.942689      -1373.5    1872.9147    4561.2034    3765.4384    2739.1371   -190.03013   -116.36707   -363.87322    290.50542 
   48000        48000     297.4825    93093.952     3975.971     0.942689   -1388.5892    1935.7947    3667.5673    3692.5188    4567.8268   -930.12935    496.89139   -76.840763     297.4825 
   49000        49000      295.353    93093.952    3328.8942     0.942689   -1370.0493    1930.5373    3434.2937    3324.1391      3228.25   -1044.2194   -81.355619   -259.30734      295.353 
   50000        50000    290.92239    93093.952    3484.5626     0.942689   -1381.6229    1869.4514    4226.3403    2346.4034     3880.944   -791.25669   -947.24118    193.75986    290.92239 
   51000        51000    290.60425    93093.952    3588.4662     0.942689   -1366.3757    1881.1433     2883.756    4167.2895    3714.3533   -1330.4906     36.13443   -6.2142913    290.60425 
   52000        52000    298.82903    93093.952    3204.4933     0.942689   -1419.4835     1919.948    3326.3023    3178.8651    3108.3124   -711.21377   -632.24949    159.53057    298.82903 
   53000        53000    296.41138    93093.952    3665.7641     0.942689   -1351.9491    1960.4649    3299.7031    3550.1274    4147.4619    -429.0605    44.994935   -235.80879    296.41138 
   54000        54000    291.84204    93093.952    4084.4325     0.942689   -1395.4803    1865.8711    4703.9831    3675.4057    3873.9088   -406.47731   -506.77496    196.11741    291.84204 
   55000        55000    295.18606    93093.952    4529.7311     0.942689   -1290.8398    2007.8812    4258.6682    4791.5334    4538.9916   -1244.3135    354.96297   -1123.3207    295.18606 
   56000        56000    292.72654    93093.952    4850.2827     0.942689   -1360.1279    1911.1078    5843.0148    4944.1327    3763.7006   -787.83052    115.08091   -391.55412    292.72654 
   57000        57000    291.34937    93093.952    3448.8407     0.942689   -1377.6311    1878.2147    3516.1329    3594.5612     3235.828   -737.90148    378.43431    672.37055    291.34937 
   58000        58000    289.11917    93093.952    4042.2793     0.942689   -1296.1148    1934.8084    3178.0856    5019.6886    3929.0638    -398.4993    791.64693    540.21738    289.11917 
   59000        59000    295.96683    93093.952    4322.7656     0.942689   -1382.5705    1924.8757    3739.1149    4872.3286    4356.8534   -332.41727   -613.40212   -404.84088    295.96683 
   60000        60000     293.4924    93093.952    3813.6014     0.942689   -1320.1228    1959.6715    3655.1533    4230.7963    3554.8546    304.90955    280.03409    515.01095     293.4924 
   61000        61000    293.09264    93093.952    4042.9071     0.942689   -1298.2314    1977.0955    3986.6959    3878.7113    4263.3141   -1112.4826   -864.50479    97.810874    293.09264 
   62000        62000    293.45467    93093.952    3098.5452     0.942689   -1362.3526      1917.02    2905.0221    3426.6926    2963.9209   -1509.5208    123.56427    31.095941    293.45467 
   63000        63000    289.25857    93093.952    4472.0295     0.942689   -1376.0035    1856.4775    3380.5851    5853.4148    4182.0885   -1010.2814   -118.35844    730.24127    289.25857 
   64000        64000    290.41863    93093.952    5028.8806     0.942689   -1338.7355    1906.7092    4795.7196    5531.8092    4759.1129    -65.04876    328.91914    -70.78681    290.41863 
   65000        65000     289.8833    93093.952    4102.5926     0.942689   -1340.1421    1899.3203    4480.3572    4825.3063    3002.1142   -219.68572    835.76893    351.68444     289.8833 
   66000        66000    288.43564    93093.952    4724.2761     0.942689   -1333.2318    1890.0529    4490.7753    4577.6884    5104.3646   -665.44325    980.60991   -469.48758    288.43564 
   67000        67000    292.88072    93093.952    3869.3047     0.942689   -1414.5958    1858.3629    4273.0292    4243.4776    3091.4074   -855.03192   -839.55276    1324.7648    292.88072 
   68000        68000    290.79872    93093.952    3653.2923     0.942689   -1305.5721    1944.1201    2795.0162    4733.9435    3430.9174   -1121.5161    62.932382    274.93459    290.79872 
   69000        69000    288.40991    93093.952    3775.4146     0.942689   -1357.3835    1865.6136    3545.4688    4064.5638    3716.2112   -263.82163   -302.09095   -21.906696    288.40991 
   70000        70000    292.72097    93093.952    4479.2989     0.942689    -1287.099    1984.0744    4658.3079    3738.6441    5040.9449   -672.23892    511.98177   -382.79969    292.72097 
   71000        71000    287.42475    93093.952    4522.1205     0.942689   -1403.9704    1808.0175    4912.3132    4555.4405    4098.6077   -800.75303   -396.04772    299.73492    287.42475 
   72000        72000    296.86921    93093.952    3712.9281     0.942689   -1364.5364     1952.994    2838.4054    4537.9784    3762.4005   -615.66032    -821.5118    652.59077    296.86921 
   73000        73000      294.519    93093.952     4099.563     0.942689     -1388.64    1902.6266    4069.6506    3950.9961    4278.0421   -17.429504    -699.6408    712.73671      294.519 
   74000        74000    287.41806    93093.952    4003.6609     0.942689   -1386.4232      1825.49    3702.2739    5199.5724    3109.1364    -346.3816    866.15196    -354.7395    287.41806 
   75000        75000    295.65862    93093.952    4127.6749     0.942689   -1330.0562    1973.9457     4145.196    4087.7363    4150.0925    141.30396   -343.83431   -130.94828    295.65862 
   76000        76000    292.56187    93093.952       3244.8     0.942689   -1367.1443    1902.2512    2620.6657    3356.4384     3757.296   -1232.7774   -156.04411   -540.21763    292.56187 
   77000        77000    297.32925    93093.952    4129.4343     0.942689   -1329.3285    1993.3429    3906.9948    4452.7572     4028.551   -864.42272    361.98257    357.98236    297.32925 
   78000        78000    297.11739    93093.952    4573.0689     0.942689   -1307.7301    2012.5736    4110.3862    4092.2692    5516.5513   -130.02279    22.957531   -494.31294    297.11739 
   79000        79000    286.11394    93093.952    4688.5172     0.942689   -1360.7036     1836.636    5025.9511    4927.7926    4111.8078   -135.05483   -1168.1744    122.78331    286.11394 
   80000        80000    301.00886    93093.952    3617.2266     0.942689   -1303.8111      2059.98    3164.3573    4305.4158    3381.9068   -1417.1666    262.49449    1060.3919    301.00886 
   81000        81000    292.02781    93093.952    4419.9704     0.942689   -1353.3179    1910.1094    4083.0318    4544.0135    4632.8658    825.45217    339.63304   -334.79583    292.02781 
   82000        82000    295.66559    93093.952    3472.5555     0.942689    -1307.058    1997.0219    3372.7611    3540.0638    3504.8416   -1184.4972    787.43303    386.51254    295.66559 
   83000        83000    296.76288    93093.952    3993.5179     0.942689   -1369.6293    1946.7128     4794.852    3290.5196    3895.1822    -788.8982   -551.30365    641.39115    296.76288 
   84000        84000     295.4853    93093.952    4311.0332     0.942689   -1309.7581     1992.307    4278.0859    3879.1661    4775.8476   -626.40361    997.77202    523.41873     295.4853 
   85000        85000    294.18596    93093.952    3823.2778     0.942689   -1360.4225    1927.1223    3067.0909    4663.7645    3738.9781   -520.91455   -306.13132    237.72429    294.18596 
   86000        86000    291.44833    93093.952    4533.5789     0.942689   -1337.9121    1919.0396    5035.1355     4577.804    3987.7972   -422.09123   -946.30117   -689.21559    291.44833 
   87000        87000    288.05658    93093.952    3881.2647     0.942689   -1362.7623    1856.2863    4561.0771    3887.5475    3195.1696   -267.08527    801.23594    368.02811    288.05658 
   88000        88000    293.57639    93093.952    3554.0536     0.942689   -1321.0625    1959.6705    3936.0408    4051.1202    2674.9999   -195.57738   -101.81692    433.64444    293.57639 
   89000        89000    287.94918    93093.952    4527.4903     0.942689   -1347.9858    1869.8626    4417.8793    4709.4824    4455.1092   -252.88009   -254.70565   -106.81174    287.94918 
   90000        90000    294.18317    93093.952    3489.9285     0.942689   -1290.0107     1997.503    3560.9739    3884.5585     3024.253   -200.68061   -830.99439   -229.99525    294.18317 
   91000        91000    289.63199    93093.952    4277.4651     0.942689   -1326.0903    1910.5637    3660.0432    3937.6119    5234.7402   -405.70699   -147.01808   -768.33804    289.63199 
   92000        92000    293.55518    93093.952    4227.7207     0.942689   -1357.9668    1922.5291    4030.9458    4150.1802    4502.0361   -615.85168   -580.88325   -545.21554    293.55518 
   93000        93000    291.27292    93093.952    3784.0847     0.942689   -1273.5424     1981.449    3271.1159    4570.3423     3510.796    -635.9924   -178.30556    48.735755    291.27292 
   94000        94000    290.92573    93093.952    4336.1168     0.942689   -1296.1289    1954.9827    4787.7104    4630.0265    3590.6134   -1038.5557   -96.021345    -12.91226    290.92573 
   95000        95000     293.2385    93093.952    3846.5975     0.942689   -1325.9551    1951.0019    3387.2997    4606.3933    3546.0994   -1786.6158   -683.96901   -536.61097     293.2385 
   96000        96000    292.27161    93093.952    4104.1527     0.942689   -1351.2982    1914.8536    3673.6335    4319.1598    4319.6647   -393.76697    445.43805     552.4253    292.27161 
   97000        97000    294.04548    93093.952    4741.2953     0.942689   -1323.3169    1962.6581    4295.1895    5542.1735    4386.5231   -857.75921   -47.278752     219.8274    294.04548 
   98000        98000    288.68295    93093.952    4507.5328     0.942689   -1282.8943    1943.1541    3867.1286    4948.2341    4707.2358   -1387.6577   -615.73113   -273.32636    288.68295 
   99000        99000    290.52028    93093.952    4603.7824     0.942689    -1257.188    1989.3927    4288.7591    4235.9663    5286.6219    -28.59468   -422.42962    121.15234    290.52028 
  100000       100000    294.76448    93093.952    4165.3752     0.942689   -1331.4624    1962.5475    3233.4728    4635.6436    4627.0091   -1022.6788   -94.479711   -319.83854    294.76448 
  101000       101000    297.13374    93093.952    3379.8796     0.942689   -1304.5311    2015.9554    2615.6952    4657.6207     2866.323   -530.77948    113.17167   -120.87737    297.13374 
  102000       102000    292.10447    93093.952    4091.7185     0.942689   -1364.8166    1899.4674    3966.4178    4272.3268    4036.4108   -1178.1662    138.11029   -11.210226    292.10447 
  103000       103000    293.95428    93093.952    4081.3201     0.942689   -1323.4944    1961.4614    4060.8005    4192.0712    3991.0887   -1199.3219    213.22545    275.70661    293.95428 
  104000       104000    292.89182    93093.952    4217.8908     0.942689   -1303.2834    1969.7994    4474.4048    4316.4699    3862.7979    -793.8267   -141.82573    275.62167    292.89182 
  105000       105000    294.83774    93093.952    4472.8812     0.942689   -1343.7483    1951.0802    4875.9861    4687.0132    3855.6445   -475.93214    47.166366   -516.04497    294.83774 
  106000       106000    291.18968    93093.952    4192.2292     0.942689   -1310.6716    1943.3896    3796.5563    4987.4615    3792.6697   -841.17665     180.3136   -472.87727    291.18968 
  107000       107000    296.72555    93093.952    4610.9963     0.942689   -1332.3583    1983.5666    5252.9871    4522.4614    4057.5404   -879.45782    160.46955    928.16607    296.72555 
  108000       108000    294.16956    93093.952    4172.1823     0.942689    -1365.003    1922.3585    3469.1501     5412.839    3634.5577   -1270.4399   -423.31314   -244.50391    294.16956 
  109000       109000    296.33334    93093.952    5175.0069     0.942689   -1306.0724    2005.4695    4879.3215    5790.2362    4855.4631   -620.35651    -525.2203    809.79952    296.33334 
  110000       110000    301.23539    93093.952    4091.0707     0.942689   -1348.8498    2017.4727    3993.0354    4396.6443    3883.5324   -1281.1967    26.041511    173.40777    301.23539 
  111000       111000    293.72929    93093.952    4271.0166     0.942689   -1325.5118    1956.9297     4090.114    4886.1823    3836.7534    559.30084   -608.29086    824.77783    293.72929 
  112000       112000     295.5031    93093.952    4880.7781     0.942689   -1240.3518    2061.9122    5126.9348    4613.2408    4902.1585   -201.91758    -45.42065    660.87777     295.5031 
  113000       113000    289.93838    93093.952    4455.2518     0.942689   -1390.1974    1849.8805    4442.4711    4768.3085    4154.9758   -1377.6429    282.20226    321.93551    289.93838 
  114000       114000    293.18437    93093.952    3857.3481     0.942689   -1270.6065    2005.7455    3478.8665    4445.6285    3647.5493   -1003.3246    311.84494    131.56956    293.18437 
  115000       115000    296.89466    93093.952    4020.3235     0.942689   -1279.6203    2038.1944    4163.0127    3921.3443    3976.6135   -1391.7161    425.79366    349.46456    296.89466 
  116000       116000    295.00116    93093.952    4304.4855     0.942689   -1384.4227     1912.232    4637.5161    4188.4613    4087.4791   -997.27816    104.54527   -74.164171    295.00116 
  117000       117000     287.3985    93093.952    4687.3546     0.942689   -1214.7277    1996.9669    3852.8002    4881.2439    5328.0195   -1098.6785    469.37887    94.642737     287.3985 
  118000       118000     290.7636    93093.952    4592.5094     0.942689   -1287.1664    1962.1334    4682.1941    4813.7507    4281.5834   -875.01782    -813.6886    313.05861     290.7636 
  119000       119000    291.36293    93093.952    4044.5705     0.942689   -1235.4248    2020.5725    4200.7944    3844.6238    4088.2934   -815.91581    385.05903    -466.0303    291.36293 
  120000       120000     285.1597    93093.952    3889.7852     0.942689   -1280.1264    1906.5494    3710.6428    3752.3494    4206.3635    -886.2545   -274.72359   -375.04603     285.1597 
  121000       121000    295.77571    93093.952    4410.4539     0.942689   -1224.5614     2080.749    4699.3185    5416.3172     3115.726   -1021.8954    158.30865   -473.53155    295.77571 
  122000       122000    294.57293    93093.952    4556.2654     0.942689   -1264.0993      2027.77    4774.3371    4788.2635    4106.1957   -835.43884     -346.646    152.79709    294.57293 
  123000       123000    294.03054    93093.952    5019.5794     0.942689   -1284.7003    2001.1076    4848.0256    4286.7473    5923.9652   -276.32507   -662.18572   -269.53176    294.03054 
  124000       124000     290.3774    93093.952    4649.0292     0.942689   -1264.7391    1980.2448    4555.6557     5376.676    4014.7559   -1118.0171    31.441995    424.86713     290.3774 
  125000       125000    300.86909    93093.952    5680.4421     0.942689   -1226.7925    2135.4367    5584.1066    5998.1937    5459.0261   -832.71499   -1715.7999   -149.69822    300.86909 
  126000       126000    285.40406    93093.952    4495.5025     0.942689    -1288.148    1901.2586    3759.7895    4336.9378    5389.7801   -1626.8864    568.92667   -101.05709    285.40406 
  127000       127000    297.52621    93093.952    4994.8009     0.942689   -1263.4866    2061.3858    4765.5597    5190.1646    5028.6785   -221.99733   -29.439088   -74.735399    297.52621 
  128000       128000    290.26625    93093.952    5416.5128     0.942689   -1276.2482    1967.4937    4394.8701    6167.5914     5687.077   -691.73123   -114.72475    95.233575    290.26625 
  129000       129000    296.50204    93093.952    3913.6151     0.942689   -1318.4537    1994.9735    4381.6562    3647.3003    3711.8887   -845.12365    233.34319   -290.75392    296.50204 
  130000       130000    292.94633    93093.952    4469.4807     0.942689   -1258.6528     2015.039    4225.6296    4517.6712    4665.1415    -193.1917    107.50529    903.17666    292.94633 
  131000       131000    294.23019    93093.952     4206.809     0.942689   -1246.9715    2041.0676    4167.9121    3814.7522    4637.7629   -1472.3611    -371.9051    169.25896    294.23019 
  132000       132000    286.85333    93093.952    4607.6294     0.942689   -1318.0384     1887.564    3546.5966    5412.7847     4863.507     390.6854   -28.714202    360.19504    286.85333 
  133000       133000    293.06666    93093.952    3407.7936     0.942689   -1309.1645    1965.8721    2721.4875    4239.6138    3262.2794   -627.84259    219.95656    172.27778    293.06666 
  134000       134000     290.0999    93093.952    4000.8415     0.942689   -1230.2764    2011.6064    3727.4829    4444.4407    3830.6009   -896.70768   -200.81995    126.81687     290.0999 
  135000       135000    295.34853    93093.952    5062.0088     0.942689   -1285.3044    2015.2322    4986.6109    5578.1648    4621.2509   -663.88576    255.64042   -54.264537    295.34853 
  136000       136000     293.3768    93093.952    3962.3955     0.942689   -1264.3392    2014.1632     3180.885    4744.4002    3961.9013   -661.52485    69.732126    320.47067     293.3768 
  137000       137000    296.67313    93093.952    4141.6313     0.942689   -1260.1468    2055.1923    3713.9412    3934.9691    4775.9836   -568.54926   -54.447259   -131.09027    296.67313 
  138000       138000    294.05611    93093.952    3663.1947     0.942689   -1294.4682    1991.6255    2081.5128     3954.413    4953.6585   -1038.3387    622.61172    455.13781    294.05611 
  139000       139000    299.79675    93093.952      4632.11     0.942689   -1188.7304    2161.5154    4079.8803    6042.9251    3773.5246   -659.17133   -687.73795   -404.53563    299.79675 
  140000       140000    289.60333    93093.952    3936.3064     0.942689    -1324.962    1911.3717    3583.1616    4414.8216     3810.936   -979.60679   -646.90599   -358.52003    289.60333 
  141000       141000    298.74299    93093.952    4424.7127     0.942689   -1226.7982    2111.6717    4077.6702    5244.2664    3952.2013   -1562.1593   -93.292326    302.74786    298.74299 
  142000       142000    295.55922    93093.952    4241.5477     0.942689   -1335.8322    1967.0589    3977.8094    4867.1147    3879.7189   -299.68432   -284.68069   -274.14465    295.55922 
  143000       143000    293.84019    93093.952    4326.2913     0.942689   -1297.7199     1985.961    4917.8145    3734.0213     4327.038    -340.7461    581.33651    78.254486    293.84019 
  144000       144000    286.71091    93093.952    4529.8536     0.942689   -1213.3015    1990.7093    4248.4529     5455.978    3885.1299   -78.181815    291.44156   -566.92358    286.71091 
  145000       145000    288.45139    93093.952    4085.5737     0.942689   -1207.2658    2016.1949    4525.8339    3650.5213    4080.3659   -1541.9878    148.53739   -465.42847    288.45139 
  146000       146000    292.19003    93093.952    4399.5618     0.942689   -1253.5579    2011.6823    3656.2022    5219.0615    4323.4216   -1122.0386    82.884397   -115.25084    292.19003 
  147000       147000    292.87804    93093.952    4911.3675     0.942689    -1262.279    2010.6498    4065.7226    5680.7573    4987.6227   -1728.8836   -68.218224     -390.381    292.87804 
  148000       148000     292.7363    93093.952    4649.7839     0.942689   -1245.0392    2026.3056    4630.6203    4952.8676    4365.8638   -361.45531    109.60642    190.60963     292.7363 
  149000       149000    297.79673    93093.952    3462.6918     0.942689   -1260.8718    2067.0235    3679.5612    3960.4889    2748.0255   -1247.1262   -17.881922    198.22405    297.79673 
  150000       150000    285.21847    93093.952    4214.2505     0.942689   -1229.0503    1958.2823    4234.0853    4757.3113    3651.3548   -1088.2083    48.903782    286.14813    285.21847 
  151000       151000    295.28762    93093.952    4194.4518     0.942689   -1208.4811    2091.3749    3812.7621    4170.6436    4599.9499   -1095.1416   -629.17483   -346.62407    295.28762 
  152000       152000    291.44418    93093.952    3870.0327     0.942689   -1253.5943     2003.311    4707.5119    3786.2226    3116.3636   -1949.4087    309.92989   -715.33876    291.44418 
  153000       153000    295.58299    93093.952    3884.7023     0.942689   -1236.4769    2066.6798    3701.9261    4603.8656    3348.3152   -1250.5589   -600.66812    122.58234    295.58299 
  154000       154000    293.10968    93093.952    4722.2062     0.942689   -1319.3326    1956.1847    3794.9838    5780.5089    4591.1258   -1086.6237    45.259393   -62.206113    293.10968 
  155000       155000    299.24484    93093.952    4276.4725     0.942689   -1266.9973    2077.0808    4516.9797     4073.107    4239.3308   -1062.6058   -543.36908   -432.72431    299.24484 
  156000       156000    294.59335    93093.952    5477.7911     0.942689   -1289.4812    2002.6162    5812.0911    5405.3671    5215.9151   -2117.2354    589.03221   -47.286077    294.59335 
  157000       157000    286.94747    93093.952    3748.9777     0.942689   -1311.7643    1894.8901    3301.5382    4078.7425    3866.6523   -21.429727   -193.36801    22.840833    286.94747 
  158000       158000    297.80374    93093.952    4798.4876     0.942689   -1224.9564    2103.0173    5286.6473    4484.4766    4624.3388   -816.76826   -60.314299    20.808695    297.80374 
  159000       159000    292.56253    93093.952    4909.4573     0.942689   -1316.6369     1952.766    4626.9454    4900.5761    5200.8504   -972.01346    104.07599    451.29644    292.56253 
  160000       160000    296.21301    93093.952    3494.8789     0.942689   -1191.1184    2119.0789    2723.0425    3079.0223    4682.5718   -1290.9841   -543.04776   -347.49521    296.21301 
  161000       161000    297.87761    93093.952    4797.5144     0.942689   -1222.9868    2105.8124    4945.2754    5741.7061    3705.5617   -1288.2949    292.92179    669.53541    297.87761 
  162000       162000    288.98538    93093.952    4553.0737     0.942689   -1221.5089    2007.9192    4147.3135    5592.6686    3919.2389   -1041.1952   -180.82051    186.36448    288.98538 
  163000       163000    294.06892    93093.952    4234.7265     0.942689   -1295.0303    1991.2065    4300.2044    3756.3968    4647.5781   -498.57012   -207.21591    173.41542    294.06892 
  164000       164000    287.99907    93093.952     4371.404     0.942689   -1211.2571    2007.1489    4283.2217    5193.9132    3637.0771   -1152.1983    396.96824   -81.933453    287.99907 
  165000       165000    290.37064    93093.952    4211.9538     0.942689   -1230.1707    2014.7377    3263.7012    5102.4392    4269.7212   -832.02029    175.78649    845.15688    290.37064 
  166000       166000    294.52645    93093.952    3201.0398     0.942689   -1210.3718    2080.9779    3814.5855    2443.5403    3344.9937   -184.00612    142.07497   -426.40903    294.52645 
  167000       167000    293.12863    93093.952    3697.4226     0.942689   -1249.4381     2026.291    3298.8427    3267.0723    4526.3526    -1613.837    145.45377   -873.13003    293.12863 
  168000       168000     294.8595    93093.952    5094.4327     0.942689   -1171.8937    2123.1779    4449.0377    4914.9469    5919.3136   -850.62524    103.81348    471.02773     294.8595 
  169000       169000    291.56819    93093.952    4033.7048     0.942689   -1231.8496    2026.4415    4176.5449    3555.4581    4369.1115   -1054.8879   -216.25438    174.32667    291.56819 
  170000       170000    293.78056    93093.952    4572.1548     0.942689   -1214.2832    2068.7313    2935.6266    5747.5537    5033.2841   -736.72685   -807.15695   -394.25963    293.78056 
  171000       171000    296.36457    93093.952    4847.6678     0.942689   -1301.5841    2010.3069    4849.4682    5200.1944    4493.3407    -837.6606    322.09144   -310.67753    296.36457 
  172000       172000     288.4096    93093.952    4360.9524     0.942689   -1206.0059    2016.9878    3689.9143    4162.8974    5230.0453   -1276.1284    43.554989     237.6351     288.4096 
  173000       173000    290.37509    93093.952    4227.9429     0.942689   -1204.9544    2040.0037    3907.1976    4589.0573    4187.5736   -1826.1537   -504.45402    533.27699    290.37509 
  174000       174000    296.86845    93093.952    3636.0816     0.942689   -1295.2372    2022.2846    3200.8699    3429.0166    4278.3582   -343.33853   -397.75648    603.29294    296.86845 
  175000       175000    294.43995    93093.952    4585.7268     0.942689   -1204.1359    2086.2473    4467.3912    4800.7196    4489.0695   -871.26601    123.99084   -216.04963    294.43995 
  176000       176000    290.26953    93093.952    4593.2839     0.942689   -1149.0643    2094.7142     4307.668    5392.0945    4080.0892    -1158.549   -190.76762    -280.9156    290.26953 
  177000       177000    296.87192    93093.952    4869.7471     0.942689   -1186.0022    2131.5584     4958.323    5115.4226    4535.4956   -1133.3874   -709.29608   -175.06175    296.87192 
  178000       178000    292.26219    93093.952    4550.0116     0.942689   -1247.2082    2018.8384    4710.2433    4091.1207    4848.6709   -1000.1139    441.62883   -476.63695    292.26219 
  179000       179000    294.30992    93093.952    4945.9064     0.942689   -1254.9758    2033.9542    4952.2839    4960.3172    4925.1181    -457.1652    251.62141   -680.81877    294.30992 
  180000       180000    290.10364    93093.952    4340.5215     0.942689   -1211.7532    2030.1714    3546.5562    4769.2673    4705.7409   -1443.5709   -673.89938    341.48335    290.10364 
  181000       181000    289.30426    93093.952    5028.6775     0.942689   -1135.7631    2097.2285    5004.5953    5278.0829    4803.3542   -208.19151     118.1581    16.622214    289.30426 
  182000       182000     297.3381    93093.952     4648.495     0.942689   -1324.2091    1998.5611    5726.1052    3988.6068    4230.7728   -268.76561    248.73426   -364.73677     297.3381 
  183000       183000     292.9425    93093.952    4247.3454     0.942689   -1232.7487    2040.9004    3282.3444    5015.9427    4443.7491   -1691.3846    52.904795   -447.42811     292.9425 
  184000       184000    286.81936    93093.952     5154.575     0.942689   -1158.2905    2046.9321    5980.8956    4514.5405    4968.2888   -512.43221    361.42922    583.97338    286.81936 
  185000       185000    289.21304    93093.952    4385.5478     0.942689   -1206.3826    2025.5896    4205.8432    3554.7454    5396.0548   -834.52932    1036.6263   -16.638029    289.21304 
  186000       186000    292.41078    93093.952    4658.2605     0.942689   -1246.5883    2021.1189    4981.8115    4644.5623    4348.4076   -577.32735    388.88753    156.74046    292.41078 
  187000       187000     293.2504    93093.952    5417.7767     0.942689   -1181.4374    2095.6525    5522.1264     4683.234    6047.9696   -1295.9667     65.53386   -154.16057     293.2504 
  188000       188000    288.75948    93093.952    5151.2391     0.942689   -1282.6832    1944.2204    4851.9772    4460.3493    6141.3909   -872.18368   -963.56472    171.75915    288.75948 
  189000       189000     292.4127    93093.952    4362.8103     0.942689   -1235.6873    2032.0413    4143.1988    5027.6056    3917.6264   -696.77315    288.61678    907.44503     292.4127 
  190000       190000    293.94284    93093.952     4094.273     0.942689   -1222.6355    2062.1924    4699.8984    4018.5338    3564.3868   -1745.0101   -59.613775   -922.01007    293.94284 
  191000       191000    292.70508    93093.952    5288.7424     0.942689   -1280.8923    1990.1037    4305.8833    5625.3547     5934.989   -837.00516    390.61006   -155.77202    292.70508 
  192000       192000    296.05478    93093.952    4868.6511     0.942689   -1244.1938    2064.2352    4604.8732    4881.7066    5119.3735   -1363.8265    358.96179    693.38316    296.05478 
  193000       193000    293.17222    93093.952    4825.6397     0.942689   -1247.4935    2028.7227    3772.7685    5234.9919    5469.1586   -971.12096   -114.99801    771.66316    293.17222 
  194000       194000    294.98304    93093.952     5601.851     0.942689   -1265.3032    2031.1491    6507.6945    5036.6165     5261.242   -1143.4317   -374.61923   -401.62782    294.98304 
  195000       195000    290.75107    93093.952    4677.4666     0.942689   -1234.1575    2015.0022    4163.4001    4860.8052    5008.1946   -1380.0517   -122.79317   -430.90106    290.75107 
  196000       196000    293.59236    93093.952    5108.4067     0.942689   -1238.4197    2042.4916    4665.1607    5157.1629    5502.8965   -519.03408    514.27311    545.62437    293.59236 
  197000       197000    288.59083    93093.952    3904.4708     0.942689   -1195.9663    2029.0526    3353.1892    4098.3535    4261.8696     -1412.83    42.811391   -306.42157    288.59083 
  198000       198000    287.80909    93093.952    4206.7426     0.942689   -1237.8328    1978.4501    4244.7725    4664.8801    3710.5752   -947.16587    17.603093   -266.67026    287.80909 
  199000       199000    292.02525    93093.952    3307.3935     0.942689   -1265.8921    1997.5066    2463.2992    3734.4666    3724.4147   -416.15222     262.3259    632.23401    292.02525 
  200000       200000    293.03538    93093.952    4812.9864     0.942689   -1256.2473    2018.4398    5095.5013     5276.428      4067.03   -1199.7124     26.28035    21.206938    293.03538 
  201000       201000    289.65734    93093.952    4523.1201     0.942689   -1273.8022     1963.135    4366.1679    5330.0509    3873.1414   -1556.1855    196.40514   -631.90595    289.65734 
  202000       202000    295.66203    93093.952    4764.2438     0.942689   -1232.1987    2071.8413    5247.2766    5324.8907     3720.564   -734.93353   -742.80602    99.153033    295.66203 
  203000       203000    290.31289    93093.952    3797.4036     0.942689   -1255.5943    1988.6688    3242.6574    3660.2519    4489.3016   -638.77101   -504.30389    195.66982    290.31289 
  204000       204000    293.96561    93093.952    3710.6525     0.942689   -1271.4863    2013.5961    3728.5979    3387.8728    4015.4869   -668.25018    316.37053   -93.549297    293.96561 
  205000       205000    298.86661    93093.952    4475.6507     0.942689   -1177.5266    2162.3248     4554.159    4781.9346    4090.8586   -985.77092    180.02119   -22.968246    298.86661 
  206000       206000    294.98056    93093.952    5245.2756     0.942689   -1275.5956     2020.829     5145.609    5111.8308    5478.3871   -659.01385   -852.89173    409.88517    294.98056 
  207000       207000    293.20797    93093.952    4712.7218     0.942689   -1191.7893    2084.8264    4145.3459    4745.2317    5247.5878    286.01493    520.06852    339.05331    293.20797 
  208000       208000    293.06693    93093.952     5306.036     0.942689   -1246.9693    2028.0702    5885.3991    5486.7644    4545.9447   -1129.5232    86.585268    262.67866    293.06693 
  209000       209000     292.6822    93093.952     4096.157     0.942689   -1209.6625    2061.0777    2977.6191    5881.5214    3429.3305   -292.47837   -252.68475   -887.27051     292.6822 
  210000       210000    293.88578    93093.952    4285.0926     0.942689     -1193.89    2090.3003    3764.4899    3631.6285    5459.1594   -1290.6464    14.033425    -252.0126    293.88578 
  211000       211000    291.59411    93093.952    3906.0601     0.942689   -1215.9854    2042.5954    2765.5871    3959.9331    4992.6599   -299.77922    388.76757    296.37875    291.59411 
  212000       212000    289.05833    93093.952    4626.8808     0.942689   -1180.9027    2049.3405    4235.8184    4666.7222    4978.1019   -311.49463    154.83285    468.34957    289.05833 
  213000       213000    293.31983    93093.952    4938.5194     0.942689   -1154.3765    2123.4893    4695.0871    5835.1577    4285.3135   -678.42649   -12.354974   -262.58704    293.31983 
  214000       214000    293.03482    93093.952    4036.3261     0.942689   -1217.5645    2057.1163    3636.9085    4711.3304    3760.7395   -866.60747   -239.96745    223.26262    293.03482 
  215000       215000     291.0807    93093.952    4946.0976     0.942689   -1182.3936    2070.4498    4271.7249    4896.8133    5669.7545   -1064.1056    259.17264    361.88954     291.0807 
  216000       216000    297.77336    93093.952    4011.1904     0.942689   -1241.2512     2086.383    3424.9837     4896.029    3712.5585   -608.25234   -186.89253   -855.08653    297.77336 
  217000       217000    290.49302    93093.952    4186.6004     0.942689   -1245.0245    2001.2516    4437.9161    4770.5756    3351.3096   -1139.7159   -106.21825   -906.41075    290.49302 
  218000       218000    291.40615    93093.952    4633.6912     0.942689   -1191.8258    2064.6546     4007.582     5142.391    4751.1007   -1193.2523    452.17126    433.12229    291.40615 
  219000       219000     294.9611    93093.952    5154.1873     0.942689   -1171.4869    2124.7201    5779.8452    5121.9705    4560.7462    -478.4389   -750.15475    783.55978     294.9611 
  220000       220000    292.89764    93093.952    4371.4791     0.942689   -1244.4449    2028.7029    3979.9578    4223.0753    4911.4041   -964.99901    821.57909    -441.9916    292.89764 
  221000       221000    295.64245    93093.952    4145.7281     0.942689    -1179.616    2124.2052    3687.9027    4792.8875    3956.3941   -405.88486    89.059889   -120.65039    295.64245 
  222000       222000    290.42534    93093.952    4246.6646     0.942689   -1220.3388    2025.1809    4401.9343    4075.0862    4262.9732   -503.85493    52.355666    249.49259    290.42534 
  223000       223000    301.72349    93093.952    4259.2067     0.942689   -1223.9877    2147.7895    4963.3388    3744.9343    4069.3469   -600.32709    700.95231    718.88442    301.72349 
  224000       224000    294.66125    93093.952    4121.0644     0.942689   -1143.3377    2149.5185    3999.2784     4017.349    4346.5659   -926.41195    505.11728    402.41369    294.66125 
  225000       225000    299.57168    93093.952    4447.1092     0.942689   -1179.3256     2168.405    3390.1638    5000.1309     4951.033   -2378.4099   -133.95746    -306.1114    299.57168 
  226000       226000    288.72083    93093.952    4562.8657     0.942689   -1205.2848    2021.1869    4341.3885    3863.7651    5483.4435   -1184.4796    614.99254    269.68005    288.72083 
  227000       227000    293.03319    93093.952    4291.6539     0.942689   -1160.8759    2113.7867    3952.8067    4470.2114    4451.9436   -556.74443    79.910803    264.84716    293.03319 
  228000       228000    290.57279    93093.952    5044.8221     0.942689   -1159.3627    2087.8047    4465.5889    4574.0928    6094.7845   -1003.4064   -789.64186    140.99805    290.57279 
  229000       229000    291.85443    93093.952    4216.1025     0.942689   -1211.9658     2049.524    4427.1701    4123.4433    4097.6941   -1087.0996    447.18066    1232.4522    291.85443 
  230000       230000    297.80975    93093.952    4001.6301     0.942689   -1193.8933    2134.1475    4444.2401    4105.3531     3455.297   -614.52197    372.68076   -446.38774    297.80975 
  231000       231000    294.07128    93093.952    4367.3708     0.942689    -1206.247    2080.0162     4352.852    4445.4501    4303.8102   -1341.0435    607.08087    791.05245    294.07128 
  232000       232000    289.06924    93093.952    4238.1132     0.942689   -1153.0087    2077.3566    3632.8675    4491.6593    4589.8129   -1737.9345    57.364173    53.137442    289.06924 
  233000       233000      298.321    93093.952    3792.0906     0.942689   -1158.0166    2175.7376      3608.71    4094.0686    3673.4932   -140.16696    488.69143   -191.91128      298.321 
  234000       234000      291.281    93093.952    4937.8087     0.942689   -1246.2787     2008.803    4384.7107    5547.5991    4881.1165   -591.69505   -360.18645    35.132074      291.281 
  235000       235000    290.29839    93093.952     4076.775     0.942689     -1117.36     2126.741    4215.7372    3981.1369     4033.451   -164.07865   -277.71233    276.20921    290.29839 
  236000       236000    295.44011    93093.952    3924.9431     0.942689   -1243.2402    2058.3198    3940.1495    3775.8547    4058.8251   -1856.6772    81.789056    169.91134    295.44011 
  237000       237000    289.42499    93093.952    4472.4426     0.942689   -1153.3086    2081.0322    3858.9672    4676.0203    4882.3403   -668.04806   -210.40584    56.223568    289.42499 
  238000       238000    294.76987    93093.952    5049.3784     0.942689   -1213.3183    2080.7518    5183.6513    4874.7992    5089.6846   -337.95649    208.80508    -164.1904    294.76987 
  239000       239000    290.89375    93093.952    5295.4095     0.942689   -1162.2008    2088.5533    5021.9099     6400.425    4463.8937   -1275.9772   -132.63436   -374.04204    290.89375 
  240000       240000    293.49391    93093.952     5325.023     0.942689   -1240.5227    2039.2885    5105.9087    5947.3621    4921.7981   -2038.2303    221.54851    134.24004    293.49391 
  241000       241000      296.814    93093.952    4050.2944     0.942689   -1146.7943    2170.1191     3568.707    4805.0859    3777.0902   -815.64937   -528.34247   -150.83724      296.814 
  242000       242000    288.94027    93093.952    4764.5186     0.942689   -1206.3981    2022.5259    4069.5027    4965.4162    5258.6369   -753.95557    300.87216    49.065224    288.94027 
  243000       243000    291.90825    93093.952     4449.577     0.942689   -1201.0956    2060.9957      4830.24    4005.7712    4512.7197   -1023.0927    10.126222   -22.380234    291.90825 
  244000       244000     287.2141    93093.952     4352.212     0.942689    -1187.044    2022.5899    3707.2332    4566.9344    4782.4685   -1294.2068    2.9196433   -846.39741     287.2141 
  245000       245000    293.87832    93093.952    3870.6606     0.942689   -1124.3415    2159.7655    3845.8185     3701.849    4064.3143   -267.06095   -719.79172    545.41573    293.87832 
  246000       246000    285.67899    93093.952    4702.7051     0.942689   -1162.3768    2030.1021    3724.0835    5442.7181    4941.3137   -1113.9916    111.69676   -310.59217    285.67899 
  247000       247000      290.356    93093.952    4695.0029     0.942689   -1161.6533    2083.0915    5359.9582    4728.3787    3996.6718   -1461.4812   -97.216568   -114.93372      290.356 
  248000       248000     294.2628    93093.952    5678.0882     0.942689   -1143.5048    2144.8987    5713.2981    5336.6026    5984.3639   -566.98367    1.2823711    726.05132     294.2628 
  249000       249000    291.09849    93093.952    4697.1274     0.942689   -1181.4536    2071.5885    4253.1664    4982.1454    4856.0703   -846.14297    443.48787    287.91443    291.09849 
  250000       250000    296.30266    93093.952    4278.7415     0.942689   -1171.8458    2139.3532    4856.1409    4486.3188    3493.7648   -1500.9662    1072.1151   -634.41258    296.30266 
  251000       251000      287.646    93093.952    3419.2871     0.942689   -1190.4736    2023.9868    3890.4479    3255.5678    3111.8458   -1352.4945   -120.08899    369.57114      287.646 
  252000       252000    302.56332    93093.952    4378.9049     0.942689   -1151.5303     2229.632     3449.145    5018.4489    4669.1206   -875.66669   -326.01996    877.69186    302.56332 
  253000       253000    289.34653    93093.952    4116.0483     0.942689   -1256.6745    1976.7894    4318.6736    4413.1033     3616.368   -996.05546    738.82786   -195.25077    289.34653 
  254000       254000    293.81294    93093.952    4109.6051     0.942689    -1160.421    2122.9553     4726.828    3892.3772    3709.6102    -1959.803    93.641496   -233.17202    293.81294 
  255000       255000    296.78829    93093.952    4259.3072     0.942689   -1206.5481    2110.0779    4491.1905    4332.2587    3954.4725   -1065.3304   -25.719011    100.47905    296.78829 
  256000       256000    292.76991    93093.952    3936.5176     0.942689   -1135.4041    2136.3163    2912.7822    5110.0473    3786.7232    -340.0853   -795.04408    514.64188    292.76991 
  257000       257000    293.07246    93093.952    4876.3594     0.942689   -1223.9861    2051.1152    5345.8619    4563.0338    4720.1827   -1421.9065   -233.00923    125.07793    293.07246 
  258000       258000     292.9161    93093.952    4415.6318     0.942689   -1066.7694    2206.5846    3900.3663    3985.8071    5360.7221   -972.44479    61.552011   -27.837343     292.9161 
  259000       259000    292.22061    93093.952    4183.0925     0.942689   -1158.5541    2107.0279    3889.6415    4636.7226    4022.9133   -652.70807   -1255.3165   -224.00273    292.22061 
  260000       260000    291.57075    93093.952    4151.0368     0.942689   -1191.1495    2067.1702     3941.775    4583.5553    3927.7801   -1146.7609    336.05068    150.79126    291.57075 
  261000       261000    301.07325    93093.952    3865.1418     0.942689   -1144.1798    2220.3309    3409.9271    3960.5199    4224.9783   -1011.0715    166.02757   -998.36306    301.07325 
  262000       262000    297.54425    93093.952    4016.1119     0.942689   -1122.6911    2202.3828    3950.1411    3333.5375     4764.657   -1489.5464   -156.80019    118.14774    297.54425 
  263000       263000    290.37925    93093.952    4835.3318     0.942689   -1188.4763    2056.5283    4938.6507    5370.4194    4196.9252    -1028.749   -13.621986   -228.41909    290.37925 
  264000       264000    298.74469    93093.952    2997.1933     0.942689   -1166.2825    2172.2065    3424.4646    1954.2939    3612.8213   -1780.3272     437.5124    647.50296    298.74469 
  265000       265000    285.86498    93093.952    5284.7385     0.942689   -1196.2891    1998.2682     4954.262    5464.0728    5435.8807   -798.77527   -736.85953   -204.55137    285.86498 
  266000       266000    296.97231    93093.952    4986.9657     0.942689   -1055.5754    2263.1071    4540.9517     5355.723    5064.2225   -362.01883   -858.42748     195.3691    296.97231 
  267000       267000    296.52511    93093.952    4469.8722     0.942689   -1169.3861    2144.2988    4015.1133    5335.2123     4059.291   -1198.0292    53.377604   -163.27849    296.52511 
  268000       268000    293.02597    93093.952    5082.4828     0.942689     -1073.97    2200.6118    4395.9745    5439.1878    5412.2861    -1503.455   -78.737307    565.41631    293.02597 
  269000       269000    287.56336    93093.952      4023.13     0.942689   -1272.2432    1941.2937    3504.8337    4438.9286    4125.6275   -1577.0586   0.15870923   -142.89534    287.56336 
  270000       270000    301.25474    93093.952    4073.7099     0.942689   -1085.6365    2280.9024    4241.7895    4240.9219    3738.4184   -872.24551    243.95702    401.91679    301.25474 
  271000       271000    291.61415    93093.952    4468.4332     0.942689   -1287.4257    1971.3791    4280.6201    4787.6497    4337.0299   -1016.9972   -497.23889   -600.74892    291.61415 
  272000       272000    290.55279    93093.952    5202.5783     0.942689    -993.9808    2252.9632    5367.2093    4598.0398    5642.4858   -1340.5947    667.90123   -89.614907    290.55279 
  273000       273000    288.51287    93093.952    4322.4874     0.942689   -1181.1032    2043.0446    4006.4497    3871.9283    5089.0842   -900.35323   -153.78213   -84.352771    288.51287 
  274000       274000    303.18117    93093.952    4582.1604     0.942689   -1138.3784    2249.6884    4830.1661    5024.1927    3892.1225   -1358.1139   -197.20554    57.581381    303.18117 
  275000       275000    290.72935    93093.952    4393.5678     0.942689   -1135.3904    2113.5266    4266.5617    4320.0619    4594.0797   -967.74867    -845.4018    -703.1331    290.72935 
  276000       276000    291.03526    93093.952    4405.0258     0.942689    -1175.522    2076.8136    4882.9106    4920.2984    3411.8684   -669.67139    151.15004    728.59432    291.03526 
  277000       277000    301.56358    93093.952    3696.5003     0.942689   -1134.7273    2235.2628    3472.2861    3571.5741    4045.6406   -1365.0481    105.77279    142.93268    301.56358 
  278000       278000    285.89554    93093.952    4216.9828     0.942689   -1171.1486    2023.7503    3640.8899    3954.1848    5055.8737   -2175.7283   -33.582198    -106.2244    285.89554 
  279000       279000    300.56113    93093.952    4265.1253     0.942689    -1161.107    2197.6808    3669.7402    4670.2177    4455.4179   -123.17961    554.31437    23.469551    300.56113 
  280000       280000    294.86597    93093.952    5312.2682     0.942689   -1104.2091    2190.9349    4673.9777    5671.1544    5591.6723   -1065.1009   -267.87428    143.44574    294.86597 
  281000       281000    290.33701    93093.952    4161.6127     0.942689   -1221.9088    2022.6239    3460.2882     4008.608     5015.942   -1746.8007    232.56061   -61.251567    290.33701 
  282000       282000    300.37831    93093.952    3860.6446     0.942689   -1056.8882    2299.8565    3817.7051    3641.3383    4122.8905   -1125.2504    59.903006    653.51858    300.37831 
  283000       283000      293.445    93093.952    4253.2806     0.942689   -1235.1294    2044.1352    4238.6943    4091.4476       4429.7    -1148.065   -64.155162   -391.83689      293.445 
  284000       284000    291.96375    93093.952    4001.1843     0.942689   -1091.3887    2171.3228    3033.8913    4958.6452    4011.0162   -1126.1932   -290.82967   -38.555205    291.96375 
  285000       285000    290.39702    93093.952    4491.3454     0.942689   -1114.2992    2130.9041    3845.8252    5110.6776    4517.5334   -1296.8941    511.13812    488.15022    290.39702 
  286000       286000    290.74354    93093.952    3994.9436     0.942689   -1093.9588    2155.1168    4136.7049    3523.0881    4325.0377   -82.745542    667.00304    1030.9348    290.74354 
  287000       287000     293.8235    93093.952    5190.1858     0.942689   -1154.6186    2128.8756    5301.6023    5349.5682    4919.3869   -1144.9968   -419.35244   -171.10023     293.8235 
  288000       288000    302.55546    93093.952    5093.2523     0.942689   -1121.6928    2259.3817    4146.0847    6194.8748    4938.7975   -1463.0099    86.269675   -259.39009    302.55546 
  289000       289000    292.00295    93093.952    4810.5097     0.942689   -1197.7924    2065.3573    4454.1632    4373.1927    5604.1733   -1031.3012    -571.3102   -526.31714    292.00295 
  290000       290000    292.91572    93093.952    4821.0483     0.942689   -1096.8597    2176.4901    4294.9698    5275.5057    4892.6694   -888.97736    154.22433   -174.64862    292.91572 
  291000       291000    294.85676    93093.952     4576.672     0.942689   -1192.3472    2102.6938    5229.5009    4029.3586    4471.1564   -1210.2251   -220.48157   -200.99887    294.85676 
  292000       292000    299.48444    93093.952    4659.2333     0.942689   -1100.3332    2246.4225     4014.859    5179.0715    4783.7693   -1249.7164     36.33816   -97.774828    299.48444 
  293000       293000    288.77222    93093.952    4721.5517     0.942689   -1138.6089    2088.4371     4675.393    4038.8198    5450.4424   -341.73069    544.89491    -312.7711    288.77222 
  294000       294000    293.08752    93093.952    5543.9906     0.942689   -1120.2782    2154.9915    5444.8007    6547.3488    4639.8224   -1527.1677   -94.363095    105.73106    293.08752 
  295000       295000    295.99648    93093.952    3790.4186     0.942689   -1152.2166    2155.5609    3364.5941    3824.2718    4182.3898   -709.02612    617.85054   -427.62594    295.99648 
  296000       296000    289.31675    93093.952    3968.9819     0.942689   -1173.5551     2059.576    3598.6008    4580.4765    3727.8684   -1630.7047    112.70895    258.93181    289.31675 
  297000       297000    296.08413    93093.952    4332.5838     0.942689    -1073.172     2235.585    3522.6762    5029.9288    4445.1465   -977.35541   -128.85425   -246.93245    296.08413 
  298000       298000    293.43756    93093.952    4042.5769     0.942689   -1174.1209    2105.0606    4353.2701    5070.0901    2704.3706   -813.06621    597.43947    138.14413    293.43756 
  299000       299000     296.4306    93093.952     4918.484     0.942689    -1062.775    2249.8538    3685.1352    4738.5214    6331.7956   -1237.3041   -338.92325   -42.436027     296.4306 
  300000       300000    292.92945    93093.952    4492.8551     0.942689   -1184.7413     2088.762    4256.5908     4304.035    4917.9395   -637.02005   -575.51131    431.50887    292.92945 
  301000       301000    297.76965    93093.952    4919.3564     0.942689   -1104.3721    2223.2207    4376.2497    5114.7597    5267.0598   -838.11304    487.81825    652.73845    297.76965 
  302000       302000    288.08132    93093.952    4714.2459     0.942689   -1148.4469    2070.8783    5884.7042    3798.3451    4459.6883   -122.62392   -377.94059    72.400283    288.08132 
  303000       303000    295.23872    93093.952    5251.6958     0.942689   -1179.2544    2120.0551    5634.6478     5253.901    4866.5388   -1171.6456    236.98778   -790.30615    295.23872 
  304000       304000    291.57745    93093.952     5038.322     0.942689      -1035.7    2222.6945    4895.4564    4980.5731    5238.9364   -1703.1008    287.26954    258.07113    291.57745 
  305000       305000    290.63321    93093.952    4201.5075     0.942689   -1152.0612    2095.7815    4036.6606    4013.0107    4554.8513   -1022.8823    166.04631    14.479628    290.63321 
  306000       306000    290.98262    93093.952     4404.289     0.942689   -1167.4637    2084.2836    4704.1184    3761.9274    4746.8213   -844.65256   -656.38219    -82.18273    290.98262 
  307000       307000    296.00762    93093.952    3785.4532     0.942689   -1113.3264    2194.5756    2715.2522    4346.6162    4294.4914   -1323.0236    193.66339    240.03232    296.00762 
  308000       308000    292.16927    93093.952    4202.4468     0.942689   -1102.1091    2162.8991    3997.0065    3728.7035    4881.6303    -1470.449    380.16596    248.88495    292.16927 
  309000       309000    292.14647    93093.952    5240.5724     0.942689   -1117.9548    2146.7986    4849.7992    5034.5989    5837.3193    71.368436    -38.41803    455.07424    292.14647 
  310000       310000    288.63569    93093.952    4266.6348     0.942689   -1056.6133    2168.9069      4192.03    4363.7209    4244.1534   -584.46146   -512.90771   -659.36815    288.63569 
  311000       311000    290.12946    93093.952    4491.0913     0.942689    -1092.419    2149.7943    3947.7416    4556.6149    4968.9175   -248.12885   -245.13689   -898.51633    290.12946 
  312000       312000    289.80296    93093.952    4043.6262     0.942689   -1138.0307    2100.5339    4343.2381    4416.0549    3371.5856   -771.73236    666.40319   -170.03383    289.80296 
  313000       313000    300.53245    93093.952    4703.0237     0.942689   -1126.1231    2232.3442    4562.8796    5070.6546     4475.537    -389.8758    3.2366123    775.15186    300.53245 
  314000       314000    296.68044    93093.952    4210.4401     0.942689   -1176.2423    2139.1785    4432.3872    4567.2316    3631.7015   -1882.7773   -792.28607    316.21258    296.68044 
  315000       315000    292.88186    93093.952    4029.2438     0.942689   -1063.1219    2209.8496    2486.8722    5319.6299    4281.2294   -2145.5224    213.44535    735.00134    292.88186 
  316000       316000    289.87331    93093.952     4398.222     0.942689   -1155.3829    2083.9679    4784.5365    4948.8695    3461.2601    -118.7774   -400.46002   -611.85603    289.87331 
  317000       317000    294.12919    93093.952    4981.0178     0.942689   -1111.3376    2175.5728    4504.0172    5156.0339    5283.0021   -455.17754   -220.24026    42.297593    294.12919 
  318000       318000    291.13738    93093.952    4749.2884     0.942689   -1100.5402    2152.9366    4690.1574    4725.7876    4831.9202   -460.55314    381.20205    932.31636    291.13738 
  319000       319000    292.77666    93093.952    4754.2284     0.942689   -1119.7044    2152.0914    5011.0741    4879.9101    4371.7009   -501.99454   -872.04995    38.276321    292.77666 
  320000       320000    295.14388    93093.952    4354.6043     0.942689   -1106.8641    2191.3856    3904.3225    4630.8838    4528.6065    -367.7649   -439.90897    507.44407    295.14388 
  321000       321000    293.40794    93093.952    5279.8931     0.942689   -1090.2951    2188.5553    6055.1175     5401.051    4383.5108    -599.5969    530.85138   -688.71414    293.40794 
  322000       322000     285.3003    93093.952    4262.7224     0.942689   -1028.9098    2159.3373    3560.5728    4197.5255    5030.0689   -816.61191   -165.25112   -70.569971     285.3003 
  323000       323000    289.79789    93093.952    3196.9079     0.942689   -1172.7341    2065.7738    2299.3606    3802.2063    3489.1567   -881.38286    144.25155   -287.74569    289.79789 
  324000       324000    293.60499    93093.952    4644.3842     0.942689   -1124.5578    2156.4946    4128.3284    3487.4598    6317.3645   -927.44776    712.78038   -279.12628    293.60499 
  325000       325000    301.21421    93093.952    4676.7235     0.942689    -1119.659     2246.427    4371.1774    5024.0821    4634.9109    -890.7215   -1095.3191     -82.7565    301.21421 
  326000       326000    286.91005    93093.952     4078.743     0.942689   -1114.7078    2091.5283    4480.6398    4150.8499    3604.7394   -284.43929   -11.919113   -35.923895    286.91005 
  327000       327000    296.91419    93093.952    3868.2307     0.942689    -1155.127     2162.906    3574.7197    3826.1001    4203.8722   -930.07749    663.14677  -0.67373877    296.91419 
  328000       328000    293.65401    93093.952    4993.0031     0.942689   -1128.7003       2152.9    4385.4658    5966.5517    4626.9917   -1652.3079    253.69131    306.08729    293.65401 
  329000       329000    293.23681    93093.952    5133.1753     0.942689   -1120.6278    2156.3103    5383.9303    5268.0074    4747.5883   -131.53069    316.87013   -357.10193    293.23681 
  330000       330000    302.06794    93093.952    4868.8789     0.942689   -1102.1091    2273.5173    4417.7533     5418.378    4770.5054   -693.36793   -910.87603   -159.75764    302.06794 
  331000       331000    288.58466    93093.952    4233.0782     0.942689   -1063.8057    2161.1443    3685.1038    4776.8882    4237.2427   -614.91056    61.307895    301.63061    288.58466 
  332000       332000    292.55482    93093.952    3824.8335     0.942689    -1080.456    2188.8607    4066.4969    3398.4003    4009.6034    -812.3083   -715.99593   -257.01152    292.55482 
  333000       333000    298.09274    93093.952    4759.4179     0.942689   -1121.3162    2209.8872    3788.9961    5200.4253    5288.8323    -1371.688   -218.93558   -5.5772574    298.09274 
  334000       334000    291.89223    93093.952    4810.1231     0.942689   -1200.3236    2061.5887    5054.9215    4565.1766    4810.2711   -866.14625   -248.97139     460.6573    291.89223 
  335000       335000    291.80378    93093.952    4074.7574     0.942689   -1129.2808     2131.643    3037.1055    4674.7675    4512.3992    -1248.166   -903.48979    193.44261    291.80378 
  336000       336000    293.26739    93093.952    4048.4928     0.942689   -1162.4884    2114.7914    3236.2826    4939.1836    3970.0121   -638.16461   -361.54119    418.34329    293.26739 
  337000       337000    294.02083    93093.952    5523.6255     0.942689   -1059.8922    2225.8073    5752.0268    4818.7319    6000.1177   -2117.4281    418.62017   -687.84649    294.02083 
  338000       338000    291.28982    93093.952    5340.5953     0.942689   -1190.9675    2064.2128    4978.3979    5463.0565    5580.3314   -1186.0932    -800.8115     468.3196    291.28982 
  339000       339000    295.90454    93093.952    5280.2752     0.942689   -1060.5445    2246.2056    4029.7646    5620.3558    6190.7052   -689.75711      561.275   -404.51947    295.90454 
  340000       340000    291.23861    93093.952     4276.523     0.942689   -1159.4932    2095.1148    5095.6576    3866.7527    3867.1588   -289.57193   -506.50858    633.01491    291.23861 
  341000       341000    296.05277    93093.952    5372.6595     0.942689   -1113.8907    2194.5158     5566.009    4894.2548    5657.7147    -624.9227   -196.37051   -151.89226    296.05277 
  342000       342000    293.17111    93093.952     4342.293     0.942689   -1089.7028    2186.5011    3502.0339    5167.5347    4357.3103   -495.85597   -779.15976    637.98545    293.17111 
  343000       343000     289.7604    93093.952    4472.3143     0.942689   -1169.3443    2068.7447    4832.7404    3979.0585    4605.1439    248.25686    -653.2541   -278.38196     289.7604 
  344000       344000    296.84261    93093.952    4516.0593     0.942689   -1180.2949    2136.9381    4140.6553    5261.3175     4146.205   -847.78315   -111.59335    494.36597    296.84261 
  345000       345000    287.09987    93093.952    4205.1803     0.942689   -1077.3986    2130.9588     3225.244    4666.7948    4723.5021   -692.07322   -92.241288   -49.366256    287.09987 
  346000       346000    290.60629    93093.952    3780.1279     0.942689   -1104.1395    2143.4023    3024.9785    5053.6509    3261.7544   -354.50256   -259.44039    764.59724    290.60629 
  347000       347000    291.53936    93093.952    4603.0894     0.942689    -1099.801     2158.168    3728.3349    4811.5571    5269.3762   -932.80271     186.9221    594.32736    291.53936 
  348000       348000    289.40487    93093.952    4709.4314     0.942689   -1125.8439     2108.272    4385.5823    4610.2977    5132.4142    483.34268   -290.65576    835.41684    289.40487 
  349000       349000    297.29149    93093.952    4727.9385     0.942689   -1149.6066    2172.6427    5130.0408    5075.9636    3977.8111   -1166.5332    497.92892    47.754211    297.29149 
  350000       350000    295.01398    93093.952    3641.6105     0.942689   -1184.9968    2111.8012    2294.3219    4741.2162    3889.2932   -859.49169   -283.77882    51.042398    295.01398 
  351000       351000    291.12417    93093.952    5078.7118     0.942689   -1154.6389    2098.6903    4490.2768    5878.8548    4867.0038   -1041.2836   -46.890477    369.67894    291.12417 
  352000       352000     291.7908    93093.952    4738.0384     0.942689   -1078.5312    2182.2476     4621.015    4775.2405    4817.8598   -1306.9886    282.52035    258.41292     291.7908 
  353000       353000    297.84579    93093.952    5722.1968     0.942689   -1057.7727     2270.671    5914.4682    5946.4455    5305.6766   -320.23419   -77.855468   -132.77797    297.84579 
  354000       354000    291.91405    93093.952    4281.7065     0.942689   -1205.1892    2056.9669    3480.3267    5205.2137    4159.5789   -1436.3766    206.34581    203.89729    291.91405 
  355000       355000    300.08782    93093.952    3261.7221     0.942689   -1080.1453    2273.3531    3503.3954    2470.8325    3810.9383   -1710.1868   -745.54387    59.104489    300.08782 
  356000       356000    291.80076    93093.952    4855.7122     0.942689   -1145.2407    2115.6494    5906.9103    4194.5682    4465.6583   -1022.3812   -316.14358   -450.32049    291.80076 
  357000       357000    296.65792    93093.952    4895.6758     0.942689   -1106.2476    2208.9215    3433.9896    5305.2737     5947.764   -310.01339   -577.08522   -863.88693    296.65792 
  358000       358000    292.38769    93093.952     4614.655     0.942689   -1048.8263    2218.6227     4370.009    4657.6594    4816.2965   -1522.6455   -210.92005    176.73375    292.38769 
  359000       359000    298.74795    93093.952    5092.4266     0.942689   -1058.4434    2280.0819    4511.8627    5179.0845    5586.3327   -791.88227   -120.37423   -453.91776    298.74795 
  360000       360000    288.03658    93093.952     5117.916     0.942689   -1154.2784    2064.5468    5218.4068     4268.083    5867.2584   -47.447969    313.48301    608.92844    288.03658 
  361000       361000     294.6712    93093.952    5319.3756     0.942689   -997.21063    2295.7568    4472.5994    5503.2658    5982.2615   -1454.1834    255.75948    457.46901     294.6712 
  362000       362000    294.03395    93093.952    4360.0025     0.942689   -1116.9401     2168.906    4362.6905    4467.2186    4250.0983   -299.45044    -636.2799   -55.638241    294.03395 
  363000       363000    298.44922    93093.952    5053.7099     0.942689   -1105.2908    2229.8961    4507.1669    5044.1838    5609.7791   -290.64234   -52.018002   -1382.0506    298.44922 
  364000       364000    295.63963    93093.952    4840.0678     0.942689   -1069.2792    2234.5105    4280.7055    5154.0277    5085.4703   -631.50532   -79.048403   -274.60938    295.63963 
  365000       365000    286.44396    93093.952    4596.4624     0.942689   -1123.1535    2077.8741    5612.2761    3800.2779    4376.8333   -672.03899    291.40801    378.81543    286.44396 
  366000       366000    299.09557    93093.952    3640.5346     0.942689   -1045.6148    2296.7951    3170.5142    4584.7209    3166.3686   -1331.1336    13.332349     43.70896    299.09557 
  367000       367000    285.16572    93093.952    5119.9708     0.942689   -1043.9586    2142.7846    5209.9269    5144.1917    5005.7939   -1301.1634   -109.71372    451.96946    285.16572 
  368000       368000    299.62412    93093.952    4694.1139     0.942689   -1137.9272    2210.3894    4697.6583    4612.6596    4772.0237   -626.01055    -767.9224   -724.59081    299.62412 
  369000       369000     296.1596    93093.952    4919.6955     0.942689   -1080.1719    2229.4285    4905.9691    5539.5445    4313.5729   -847.21644    751.17162    189.22797     296.1596 
  370000       370000      292.415    93093.952    4616.3085     0.942689   -1098.3964    2169.3578    4435.2966     5616.215    3797.4139   -1016.1695   -688.32648    -918.4554      292.415 
  371000       371000     293.2117    93093.952    5164.8949     0.942689   -1029.8216    2246.8359    5787.7206    4813.9206    4893.0435   -1515.0891    153.43243    354.84515     293.2117 
  372000       372000    289.71691    93093.952    5015.1269     0.942689   -1179.1101    2058.4928    4777.2494    5754.0174    4514.1138    -980.2048     459.4559     172.9342    289.71691 
  373000       373000    294.00339    93093.952    4023.2493     0.942689   -987.43899    2298.0656    4793.9084    3370.7416    3905.0981   -597.88999    -163.4749   -976.36239    294.00339 
  374000       374000    292.99778    93093.952    5518.7234     0.942689   -1118.5843    2155.6825     4858.191    6151.9923    5545.9868    219.44942    358.33919    153.25383    292.99778 
  375000       375000    289.41943    93093.952    4425.2225     0.942689   -1069.0839    2165.1947    3656.2577    3793.8253    5825.5846   -1767.1829   -909.76776    1026.5176    289.41943 
  376000       376000    301.71264    93093.952    3731.1914     0.942689    -1079.311    2292.3449    3389.2894    3502.1619     4302.123   -2324.5679    182.15004    226.16063    301.71264 
  377000       377000    289.12782    93093.952    5414.2298     0.942689   -1124.4355    2106.5844    5998.2522    5598.8315    4645.6056   -561.80101    516.94097    880.99578    289.12782 
  378000       378000    290.11752    93093.952    4866.7628     0.942689   -1099.8937    2142.1861    5159.8634     5005.721    4434.7042    -1351.129   -410.18501   -563.82115    290.11752 
  379000       379000    291.48277    93093.952    5129.1601     0.942689   -1115.9964    2141.3402    4724.4238     4989.496    5673.5604   -375.30994   -293.86458     473.4919    291.48277 
  380000       380000    292.75842    93093.952    5061.1207     0.942689   -1111.4479    2160.1441    5727.7727    4636.1307    4819.4588   -653.30392   -366.58363    104.59049    292.75842 
  381000       381000    295.63201    93093.952    4763.5486     0.942689   -1046.3044    2257.4001    4689.2687    5141.3967    4459.9804   -315.43888   -174.48162      -681.53    295.63201 
  382000       382000     290.1414    93093.952    4729.2798     0.942689   -1111.7011    2130.6455    3991.3932    5288.9802    4907.4661   -864.53676    259.92776     -233.124     290.1414 
  383000       383000    296.99669    93093.952    5606.9081     0.942689   -1074.1857    2244.7693    5765.7018    5408.1884     5646.834    -574.2281   -729.51884    304.71053    296.99669 
  384000       384000    290.99815    93093.952     3912.952     0.942689    -1103.723    2148.1979    3409.3313    4341.5303    3987.9944   -820.91988    -388.5666   -137.87505    290.99815 
  385000       385000    298.07887    93093.952    4930.8689     0.942689   -1042.4257    2288.6226     4081.497    5390.4364    5320.6732    -1005.395   -799.73857    314.12511    298.07887 
  386000       386000    288.94439    93093.952    4382.8193     0.942689   -1075.4496    2153.5204     3848.918    4528.5844    4770.9553   -540.30075    408.56993    532.19497    288.94439 
  387000       387000    294.06687    93093.952    4163.2473     0.942689   -1143.9218    2142.2922    3400.3573    4846.4204    4242.9641   -298.99314   -698.02594   -695.83763    294.06687 
  388000       388000    300.28351    93093.952    4769.5389     0.942689    -1120.159    2235.5263    4501.4547    4842.8406    4964.3213   -1304.8279   -378.19311   -373.77799    300.28351 
  389000       389000    287.21921    93093.952    4783.7551     0.942689   -1058.1307    2151.5603    5124.4698    4320.2555      4906.54   -810.74004    520.82211    598.87958    287.21921 
  390000       390000    290.68383    93093.952    5824.0859     0.942689   -987.89162    2260.5167    5119.2849     7111.965    5241.0078   -1610.2467    118.51401   -67.724519    290.68383 
  391000       391000    286.09061    93093.952    4635.2363     0.942689   -1127.1648     2069.914    4694.9299    5392.6646    3818.1143   -56.206507    -506.8939   -653.43331    286.09061 
  392000       392000    300.96638    93093.952    4463.0922     0.942689   -1036.5134     2326.803    4486.9751    4486.6193    4415.6823   -799.18845    246.81645    93.236005    300.96638 
  393000       393000    290.24785    93093.952    4070.5238     0.942689   -1138.0679    2105.4683    4561.6314     3893.024    3756.9158   -642.78493   -416.11013    41.365303    290.24785 
  394000       394000    294.19633    93093.952    4456.3341     0.942689    -1017.466    2270.1948    4031.9804    4121.3318    5215.6901   -1798.1189    -7.490408   -357.49113    294.19633 
  395000       395000    291.52188    93093.952    4098.1121     0.942689   -1072.9483    2184.8253    3154.1432    4534.3835    4605.8098    17.689136   -352.31831    451.80147    291.52188 
  396000       396000    292.88231    93093.952    4322.8351     0.942689   -1093.4671    2179.5094     4378.801    4375.1799    4214.5244   -642.24857    245.99156    211.74726    292.88231 
  397000       397000    292.12683    93093.952    4438.4091     0.942689   -1111.7387    2152.7953    4340.0925    4263.5929     4711.542   -579.41948   -550.01996    57.983563    292.12683 
  398000       398000    292.79499    93093.952    3815.2171     0.942689   -1074.3858    2197.6149    3509.5309    4659.6692    3276.4512   -53.207246    104.68857    103.69624    292.79499 
  399000       399000    293.05164    93093.952    4931.7173     0.942689   -1153.2906    2121.5781    3898.7225     6110.145    4786.2845   -507.57108   -141.21014   -340.03987    293.05164 
  400000       400000    297.48089    93093.952    4394.1151     0.942689   -1066.4128     2257.953    4741.9428    4454.2005    3986.2021   -510.42915     431.8083   -537.37167    297.48089 
  401000       401000    284.41253    93093.952    4608.7615     0.942689   -1052.4906    2125.8356    4543.7165    4573.8959    4708.6723   -541.52304   -24.054584    234.30471    284.41253 
  402000       402000     292.5979    93093.952    4684.6966     0.942689   -982.25179    2287.5464    3910.9155    5277.5454    4865.6287   -920.44105   -741.25885    551.94303     292.5979 
  403000       403000    296.33797    93093.952    5019.3783     0.942689   -1109.7258     2201.868     4814.771    4393.7595    5849.6045   -561.50912     58.11061    144.12841    296.33797 
  404000       404000    295.63798    93093.952    5539.7948     0.942689   -1106.6154    2197.1557    5869.5435    5866.0825    4883.7583   -1170.3415   -379.62517   -30.322306    295.63798 
  405000       405000    294.59965    93093.952    4700.2969     0.942689   -1105.4096    2186.7582    4818.7745    4239.4646    5042.6516   -797.56705    -26.63614     258.0769    294.59965 
  406000       406000    293.36936    93093.952    4527.1489     0.942689   -1093.3017    2185.1176    3432.5871    4799.3616    5349.4979   -882.41511     858.3923   -125.78729    293.36936 
  407000       407000    293.70577    93093.952    4754.3724     0.942689   -1052.6949    2229.4837     5098.359    4526.9088    4637.8493   -1116.6973   -448.90916    382.95268    293.70577 
  408000       408000    289.29481    93093.952    4737.3077     0.942689   -1059.4123    2173.4737    4126.2782    5164.1824    4921.4626   -1258.3236   -432.95931    438.01046    289.29481 
  409000       409000    286.62137    93093.952    4956.8082     0.942689   -1078.4582    2124.5519    4772.7969     5161.502    4936.1256   -773.06193    214.20009   -23.649678    286.62137 
  410000       410000    289.97266    93093.952    4141.7058     0.942689   -999.80956    2240.6514    4999.7721    3657.5312    3767.8142   -1627.5193   -761.94277    65.112498    289.97266 
  411000       411000    293.21527    93093.952    5529.0736     0.942689   -1049.8519    2226.8454    5227.6311     4604.747    6754.8426   -1285.9135    39.391642    104.52045    293.21527 
[...]
100080000   1.0008e+08     293.3017    93093.952    4529.8027     0.942689   -1034.6429    2243.0203    3607.6825    5222.9888    4758.7367   -1048.6535   -328.80371    77.379872    293.31653 
100090000   1.0009e+08    291.23729    93093.952    4019.0183     0.942689   -1070.8072    2183.7861    3983.1216    5048.7119    3025.2215   -794.36115   -533.57132   -310.32573    291.24794 
100100000    1.001e+08    287.59992    93093.952    4399.3026     0.942689   -1055.0674    2158.8781    4002.6346    4572.7138    4622.5593   -939.42092    290.00812   -260.09223    287.61973 
100110000   1.0011e+08    284.03124    93093.952    4176.7491     0.942689    -1204.833    1969.2322    3674.3416    5397.0464    3458.8593   -811.61399    171.22539     468.9126    284.03446 
100120000   1.0012e+08    297.37116    93093.952    3903.9502     0.942689   -1094.2006     2228.939    3146.7973    4275.9173     4289.136   -609.69671   -11.179936    78.675458    297.37527 
100130000   1.0013e+08    296.21568    93093.952    4599.0162     0.942689   -1063.4347    2246.7924    3904.6533    4495.3458    5397.0496   -1337.5225     43.49777   -358.71254    296.21222 
100140000   1.0014e+08    288.91655    93093.952    3694.7769     0.942689    -1111.579      2117.08    3559.7026    3917.9793    3606.6487   -1085.4323    786.85045    1.5473531    288.91369 
100150000   1.0015e+08    295.62264    93093.952    4412.7698     0.942689    -1046.474    2257.1258      4625.78    4184.2901    4428.2394   -823.11357    439.26017    507.13741    295.63204 
100160000   1.0016e+08    297.34358    93093.952    4366.3427     0.942689   -1171.1997    2151.6318    4577.6086    4250.4861    4270.9332   -1249.8559     256.2547    10.180064     297.3482 
100170000   1.0017e+08    284.06766    93093.952    4513.5104     0.942689   -1074.8175    2099.6547    4362.7039    4194.2345     4983.593    26.879973   -137.82937   -297.73039    284.08312 
100180000   1.0018e+08    292.44278    93093.952    4182.2093     0.942689   -1151.5128    2116.5519    3503.9719    4822.3983    4220.2576   -358.99388   -292.66043   -260.61657    292.45179 
100190000   1.0019e+08    295.93459    93093.952    3907.0924     0.942689   -1011.8488    2295.2371    3740.3804    4791.2393    3189.6574   -716.35674   -578.83935   -541.29998    295.94029 
100200000    1.002e+08    294.98952    93093.952     4862.328     0.942689   -1090.4361    2206.0886    5400.7421    4698.6357    4487.6063   -1469.8167    -137.8046    -80.58666    294.99475 
100210000   1.0021e+08    287.48699    93093.952    4615.3929     0.942689   -1085.2879    2127.3956    3940.9537    4858.0187    5047.2061   -991.75858   -367.11728   -631.46745    287.48964 
100220000   1.0022e+08    292.10461    93093.952    3935.3235     0.942689   -1123.0228    2141.2628    3847.4378    4357.7756    3600.7572   -1438.7874   -393.50266    1119.0813    292.11396 
100230000   1.0023e+08    288.98956    93093.952    4677.2635     0.942689   -1021.5997    2207.8751    5142.8494    4173.1388    4715.8022    -1549.613   -110.55044   -615.28012    288.99639 
100240000   1.0024e+08    288.28173    93093.952    5000.7229     0.942689   -1105.9531    2115.6117    3926.5944    5463.4863    5612.0879   -1464.4059   -281.60247   -164.26796      288.282 
100250000   1.0025e+08    288.31607    93093.952    3761.7896     0.942689   -1081.4202    2140.5283    3636.0253    3527.4824    4121.8612   -1200.2367    70.515438    84.835904     288.3058 
100260000   1.0026e+08    296.36472    93093.952    4174.0249     0.942689   -1075.1792    2236.7134    3654.4495    3903.2508    4964.3743   -1978.0806     181.3385    156.37718    296.36255 
100270000   1.0027e+08    293.66825    93093.952    4946.4796     0.942689   -1094.3999    2187.3595    5014.9917    5078.4851    4745.9618   -1592.1158    491.08601   -68.979548    293.66673 
100280000   1.0028e+08    292.01066    93093.952    4608.3557     0.942689   -1153.0069    2110.2289    4703.1908     4867.734    4254.1425   -689.12729   -842.20459    763.74194    292.00268 
100290000   1.0029e+08    299.78827    93093.952    4012.5267     0.942689   -1092.8509       2257.3    3021.8789    5330.2861    3685.4151   -722.09777    36.870983   -341.69721    299.79567 
100300000    1.003e+08    289.34848    93093.952    4442.5468     0.942689   -1136.0602    2097.4255    4062.3639    5787.5154    3477.7612   -30.131346   -125.38106    593.35221    289.34334 
100310000   1.0031e+08    298.57923    93093.952    3957.8825     0.942689   -1107.5248    2229.1151    2831.8826    4680.9058    4360.8591   -1434.2935   -829.52506   -220.14762    298.58683 
100320000   1.0032e+08    288.22748    93093.952    4678.4932     0.942689   -1040.4906    2180.4679    4868.9318    5168.6005    3997.9473    -1138.542   -450.72218   -1023.2015    288.21589 
100330000   1.0033e+08    289.61999    93093.952    4753.5734     0.942689   -1072.3363    2164.1836    3548.8393    6133.6295    4578.2513   -580.95321   -6.1764369   -65.472417     289.6218 
100340000   1.0034e+08    289.49997    93093.952    4532.9007     0.942689   -1071.2484    2163.9303    4225.8617    4776.1897    4596.6507   -1099.1749   -286.33168   -58.287829    289.52524 
100350000   1.0035e+08    288.39989    93093.952    3681.5118     0.942689   -1096.4862     2126.399    3563.0106    4407.4087    3074.1159    278.44024    296.84368   -217.45788     288.4044 
100360000   1.0036e+08    284.99822    93093.952    4721.0087     0.942689    -1128.342    2056.5293       3221.8    5452.7501     5488.476   -603.33474   -191.40815   -446.13034    285.01225 
100370000   1.0037e+08     286.8187    93093.952    4455.6526     0.942689   -1159.7128    2045.5025    3760.9551    5447.0117     4158.991    -780.6773   -504.09195   -928.62116    286.81914 
100380000   1.0038e+08     293.9235    93093.952     5002.907     0.942689   -1024.0027    2260.6091    4781.2309    5122.8576    5104.6324   -810.88312   -232.07556    265.01718    293.93368 
100390000   1.0039e+08    293.91199    93093.952    4045.5221     0.942689   -1080.3921    2204.0911    2056.9967    4883.8533    5195.7162   -1056.2648    623.48501   -344.15605    293.91911 
100400000    1.004e+08    295.07438    93093.952    5126.4808     0.942689    -1086.661     2210.812    5317.9876    4929.5003    5131.9545   -591.90729    942.32319   -418.23094    295.06338 
100410000   1.0041e+08    294.71307    93093.952    4604.4714     0.942689   -1182.7808    2110.6546    3891.2604    4890.7785    5031.3753   -913.83743   -121.78862   -573.25662    294.72104 
100420000   1.0042e+08    292.27607    93093.952    4015.4522     0.942689   -1163.1346    2103.0671    3493.1861    5118.3627    3434.8079    -893.8565    118.21275    870.68049     292.2567 
100430000   1.0043e+08    291.90867    93093.952    5052.7935     0.942689   -1054.3919    2207.7041    5049.1572     5533.359    4575.8642   -97.681811    1101.6154    128.51833    291.90145 
100440000   1.0044e+08    294.43836    93093.952    4742.2944     0.942689   -1063.3931    2226.9723    3540.0482    6135.1889    4551.6462   -384.44927   -468.01042    422.96318    294.45279 
100450000   1.0045e+08     296.6133    93093.952    4104.9173     0.942689    -1058.591    2256.0795    4190.2943    4842.2073    3282.2502      -549.77    80.271577   -446.70706    296.61378 
100460000   1.0046e+08    292.57354    93093.952    4841.2226     0.942689   -1106.5573    2162.9686     4587.536    5273.4064    4662.7255   -86.164758   -184.23279    149.35392    292.58511 
100470000   1.0047e+08    287.35856    93093.952    4082.6674     0.942689   -1104.2686    2106.9796     3646.133     4142.031    4459.8384    -606.1596   -102.02381   -201.26319    287.34836 
100480000   1.0048e+08    291.66873    93093.952    5014.1365     0.942689   -1138.5102    2120.9045    4464.6173    5173.6688    5404.1235   -1528.8373    31.728989   -199.45438    291.67407 
100490000   1.0049e+08       297.25    93093.952    4223.3858     0.942689   -1122.2343    2199.5514    3768.0143    4328.1313    4574.0117   -746.82199   -50.552294    448.47132    297.25202 
100500000    1.005e+08    293.33474    93093.952    4142.5508     0.942689   -1015.8746    2262.1579     3703.875    4855.6878    3868.0897   -93.229665    181.72796   -489.68946    293.32971 
100510000   1.0051e+08    290.33452    93093.952    4062.8887     0.942689   -1107.6331    2136.8717    2790.0371    5059.1114    4339.5174   -1061.8099    372.48475   -24.714681    290.32557 
100520000   1.0052e+08    290.04946    93093.952    4414.2425     0.942689   -937.47202    2303.8472    4288.9187    4312.2667    4641.5421    -689.7799   -148.31706   -458.82753    290.03988 
100530000   1.0053e+08    300.18178    93093.952    4637.3098     0.942689   -998.67511    2355.8734    3778.8049    5046.9215    5086.2029    200.61974    293.98007   -577.79348    300.19914 
100540000   1.0054e+08    295.57949    93093.952    4569.7792     0.942689   -1110.8485    2192.2691    4942.5475    5023.8184    3742.9719    -188.2816   -48.921733    70.555895    295.57128 
100550000   1.0055e+08    297.63603    93093.952    3834.0151     0.942689   -1056.2783    2269.8212    3709.5651    4830.2471     2962.233    -1010.492    381.81402   -132.84772    297.64629 
100560000   1.0056e+08    290.50063    93093.952    4229.9087     0.942689   -1058.3483    2188.0128    4503.2975    4067.1523    4119.2764   -277.22608    625.31291   -45.919657    290.51216 
100570000   1.0057e+08     290.2156    93093.952    3538.2867     0.942689   -1034.4411    2208.7348    3526.2239    3825.0425    3263.5937   -405.62215   -650.03823   -286.19375    290.22028 
100580000   1.0058e+08    290.22318    93093.952    3885.6637     0.942689   -1108.1677    2135.0928    3583.9534    4717.4108     3355.627    -351.1818    644.22517    480.97853    290.22886 
100590000   1.0059e+08    294.49544    93093.952    4338.7026     0.942689   -1137.2589    2153.7443     3278.576    5499.5468     4237.985   -1099.2651   -492.13701    56.246033    294.51277 
100600000    1.006e+08    291.33882    93093.952    4837.5121     0.942689   -1054.2999     2201.428    5563.2672    4107.6828    4841.5862   -1144.0532    483.48177   -464.36871    291.34349 
100610000   1.0061e+08    294.40201    93093.952    4647.7522     0.942689   -1109.7008    2180.2584    3455.0138    5381.0675    5107.1752   -709.44736   -280.04351   -89.086356    294.39479 
100620000   1.0062e+08    294.82542    93093.952    5287.9422     0.942689   -1052.4769     2242.214    5667.6617    5514.1729     4681.992   -556.44776    900.25594    2.8653156    294.83388 
100630000   1.0063e+08    299.00184    93093.952    4092.4449     0.942689   -1108.8631    2232.4995    4040.9844    4616.1665    3620.1836   -1065.4018   -260.77464    427.66265    299.02362 
100640000   1.0064e+08    300.72478    93093.952    4717.4128     0.942689   -1129.3778    2231.2387    3163.1308    4714.9258    6274.1819    40.806381     -303.175   -113.32205    300.71748 
100650000   1.0065e+08    295.59028    93093.952    4614.6421     0.942689    -1160.845    2142.3932    3962.3586    5632.4302    4249.1374   -584.11162    460.13709    1350.8705    295.59626 
100660000   1.0066e+08    298.70189    93093.952    3988.5592     0.942689   -1141.1375    2196.8731    3252.5889    4047.4273    4665.6615   -237.56647   -64.590792    217.81974    298.72528 
100670000   1.0067e+08    298.03893    93093.952    4434.3574     0.942689   -1150.7205    2179.8814     4242.741    4892.6386    4167.6926   -800.14887   -67.963451    347.25659    298.03922 
100680000   1.0068e+08    295.85112    93093.952    4620.5677     0.942689   -1106.9165    2199.2365     4054.992    5823.0846    3983.6266   -334.40025    715.59763   -490.21582    295.84474 
100690000   1.0069e+08    290.48341    93093.952    4050.8381     0.942689   -1037.7731    2208.3956    4286.4443    4270.3559     3595.714    -1270.212    156.40236    263.22025    290.49743 
100700000    1.007e+08    287.55337    93093.952    4187.9881     0.942689   -1171.6537    2041.7715    3023.0104    5215.6552    4325.2988   -1515.2375    80.807163    630.33105    287.57673 
100710000   1.0071e+08    290.73684    93093.952    3019.0179     0.942689   -1028.5781    2220.4226    1408.2944    4364.4006    3284.3585   -884.85623    395.26765    33.035006    290.72141 
100720000   1.0072e+08    291.89829    93093.952      4064.42     0.942689   -1093.6501    2168.3299    2769.3403    4662.9634    4760.9563   -522.01969   -69.966718   -191.42298    291.90716 
100730000   1.0073e+08    293.39399    93093.952    3786.4305     0.942689   -1009.8837    2268.8108     2794.269    4477.6287    4087.3939   -1181.1309    -271.4742   -621.49624    293.39984 
100740000   1.0074e+08    297.74374    93093.952    4472.2905     0.942689   -1072.9189    2254.3843    4132.4779      5603.74    3680.6535     174.3079    143.05952    591.73364    297.76471 
100750000   1.0075e+08    294.97204    93093.952    4090.5223     0.942689   -1118.2809    2178.0484    3853.1994    4554.2392    3864.1283   -990.66748    306.99035    42.836313    294.97515 
100760000   1.0076e+08    286.06697    93093.952    4187.9063     0.942689   -1070.5601    2126.2546    3854.4782    4088.0644    4621.1763   -1006.1882    9.9590682   -920.29449    286.05761 
100770000   1.0077e+08    288.92846    93093.952    3770.9866     0.942689   -1116.3222    2112.4697     3012.696    4993.6539    3306.6101   -524.46637    249.21578    183.15197    288.94041 
100780000   1.0078e+08    291.14657    93093.952    5151.7892     0.942689   -989.92858    2263.6509    5210.8541    6078.5088    4166.0047   -747.79384   -137.51391    379.68454    291.13055 
100790000   1.0079e+08    288.49695    93093.952    3898.9155     0.942689   -1072.5388    2151.4309    4159.4804    4083.2053    3454.0608   -537.07512    537.77428   -710.85364    288.49872 
100800000    1.008e+08    289.53282    93093.952     4254.022     0.942689   -1025.7609    2209.7848    2537.1412    5321.0188    4903.9061   -1127.0563    868.28791    -119.7928    289.53479 
100810000   1.0081e+08    297.64372    93093.952     3423.486     0.942689   -1078.6619    2247.5235    3389.0011    3704.1162    3177.3405   -743.75394   -48.246265   -935.74381    297.64645 
100820000   1.0082e+08    298.78893    93093.952    3743.3212     0.942689    -1143.544    2195.4393    3961.4511     3414.518    3853.9944   -966.83574     820.5061   -203.50657    298.79699 
100830000   1.0083e+08    296.81827    93093.952    5467.2382     0.942689   -996.13605    2320.8251     5331.787    5755.2652    5314.6624    -1072.598   -80.641351   -476.85978    296.83396 
100840000   1.0084e+08    291.41719    93093.952    4189.6254     0.942689   -1008.0796     2248.524    4051.5586    4330.2376    4187.0801   -653.91426    328.26597    36.587044    291.40597 
100850000   1.0085e+08    295.17771    93093.952    4950.2702     0.942689   -1055.4821    2243.1456    4574.0551    5367.7023    4909.0532   -648.94893    75.557664   -111.15019    295.18506 
100860000   1.0086e+08    289.94996    93093.952    4412.6873     0.942689   -1046.2851    2193.9222    3640.1218    4932.5503    4665.3899    -22.69607    532.32936   -30.452898    289.96419 
100870000   1.0087e+08    291.60595    93093.952     4420.683     0.942689   -1153.8678    2104.8452    4554.4693    4372.5245    4335.0554   -778.66232    24.886887   -414.17866    291.60117 
100880000   1.0088e+08     305.0449    93093.952    4034.4643     0.942689   -1139.6222     2269.272    3395.3043    4324.3413    4383.7473   -1084.9032    666.95601   -104.46583    305.05939 
100890000   1.0089e+08    296.05547    93093.952    2816.5052     0.942689   -1072.1408    2236.2959    1550.7334    4381.3296    2517.4527   -365.09142   -485.85785   -1500.3177    296.05556 
100900000    1.009e+08    293.62688    93093.952    4734.4179     0.942689   -1071.5659    2209.7312     4443.556    4215.7214    5543.9762   -1475.9074    1039.1232    443.74172    293.62445 
100910000   1.0091e+08    295.42015    93093.952    4672.7373     0.942689   -1062.5427    2238.7943    4093.0667    5085.5893     4839.556   -225.11437   -122.70601    -646.2689     295.4244 
100920000   1.0092e+08     295.6186    93093.952    5218.3397     0.942689    -1101.8Generated thermo.dat
Done!
stress
average  759.546
square average  578620
number of blocks  100
variance  4.13506213254408064885
pxx
average  4016.8
square average  1.61422*10^07
number of blocks  100
variance  8.67050171558716664325
pyy
average  4808.87
square average  2.31284*10^07
number of blocks  100
variance  5.62967414687564310362
pzz
average  4564.58
square average  2.08389*10^07
number of blocks  100
variance  5.92403882499093687362
xx
average  2181.43
square average  4.75864*10^06
number of blocks  100
variance  .17762601160866051489
yy
average  2184
square average  4.76984*10^06
number of blocks  100
variance  .40000000000000000000
zz
average  2183.11
square average  4.76596*10^06
number of blocks  100
variance  .30450123152460319729
xx
average  2410.07
square average  5.81592*10^06
number of blocks  100
variance  8.65019947746871326449
yy
average  3200.25
square average  1.02447*10^07
number of blocks  100
variance  5.56770823589023924708
zz
average  2956.61
square average  8.7451*10^06
number of blocks  100
variance  5.96431714448519244735
pressure, stress.strain, ktensor, virial are all concatenated
averages computed will all accumulated data until now
91    2201.6637    4823.5329     5265.446    5566.0402    323.82229   -440.58902   -300.84349    295.62115 
100930000   1.0093e+08    294.05926    93093.952    3937.2273     0.942689   -1085.0051    2201.1239     3555.153     3939.906    4316.6229   -1626.4764   -279.57237   -269.34027    294.05943 
100940000   1.0094e+08    287.38748    93093.952    4307.6832     0.942689   -1080.7449    2130.8265    3757.6047     4944.847    4220.5979   -715.47013    333.64665     288.5655    287.40505 
100950000   1.0095e+08    290.35045    93093.952    3841.5906     0.942689    -1069.129    2175.5539    3669.1136    4245.1048    3610.5535    -734.2601   -271.90494   -79.735395    290.32259 
100960000   1.0096e+08     299.0227    93093.952    4658.7464     0.942689   -1077.6669    2263.9288    3985.6787    4800.6923    5189.8681    39.328944   -268.94969   -611.07354    299.03454 
100970000   1.0097e+08    297.26227    93093.952    5421.9236     0.942689   -1071.4718     2250.451    5441.3913    5287.6604     5536.719   -230.94298    60.040971    424.91564    297.26208 
100980000   1.0098e+08      294.075    93093.952      3751.94     0.942689   -1074.1452    2212.1597    3075.4385    4484.2303    3696.1513    59.973369    57.461007   -708.00257    294.06924 
100990000   1.0099e+08    292.71994    93093.952    4298.5919     0.942689   -1083.7629    2187.3991    3484.8751    4026.3959    5384.5048   -1303.3668   -48.744859    395.10087    292.72461 
101000000     1.01e+08    288.63613    93093.952    3816.9122     0.942689   -1115.3588    2110.1664    3646.2329    4250.1119    3554.3919   -799.28201   -511.34201   -265.04736    288.64142 
Loop time of 15653.4 on 48 procs for 50000000 steps with 3750 atoms

Pair  time (%) = 5522.36 (35.279)
Bond  time (%) = 1022.51 (6.5322)
Neigh time (%) = 2957.83 (18.8958)
Comm  time (%) = 4524.05 (28.9014)
Outpt time (%) = 0.460552 (0.00294219)
Other time (%) = 1626.17 (10.3886)

Nlocal:    78.125 ave 89 max 65 min
Histogram: 1 0 6 5 7 12 4 7 4 2
Nghost:    1385.46 ave 1407 max 1359 min
Histogram: 1 2 3 5 9 9 4 8 5 2
Neighs:    6951.56 ave 8098 max 5699 min
Histogram: 1 1 6 5 12 6 5 7 4 1

Total # of neighbors = 333675
Ave neighs/atom = 88.98
Ave special neighs/atom = 6.26667
Neighbor list builds = 5586924
Dangerous builds = 0
System init for write_restart ...

real	527m18.041s
user	0m0.047s
sys	0m0.066s
