LAMMPS (10 Feb 2015)
Read molecule SQL:
  30 atoms with 4 types
  29 bonds with 1 types
  34 angles with 1 types
  31 dihedrals with 2 types
  6 impropers with 1 types
Reading restart file ...
  restart file = 10 Feb 2015, LAMMPS = 10 Feb 2015
  triclinic box = (111.702 111.702 111.702) to (158.298 158.298 158.298) with tilt (-2.55795e-12 0 0)
  3 by 4 by 4 MPI processor grid
  3750 atoms
  3625 bonds
  4250 angles
  3875 dihedrals
  750 impropers
250 atoms in group endatoms
60 atoms in group samplechains
Resetting global state of Fix shear1 Style nvt/sllod from restart file info
Neighbor list info ...
  1 neighbor list requests
  update every 1 steps, delay 0 steps, check yes
  master list distance cutoff = 10.3
Setting up run ...
Memory usage per processor = 2.19413 Mbytes
Step dummytim Temp Volume Press Density PotEng TotEng Pxx Pyy Pzz Pxy Pyz Pxz myT 
101000000     1.01e+08    291.14683    101167.02    724.08959     0.867463   -1067.4862    2186.0962    115.06062    1227.4648    829.74334   -573.70858     416.7872    -708.3327    291.16752 
101010000   1.0101e+08    296.83855    101167.02    670.46252     0.867463   -1038.7097     2278.478    728.03783     1217.166    66.183711    299.21954    114.43078   -366.14997    296.82846 
101020000   1.0102e+08    288.31926    101167.02    651.85844     0.867463    -1065.787    2156.1971    723.02673    541.86576    690.68284    -247.4887   -311.20879   -478.62543    288.33328 
101030000   1.0103e+08    290.27106    101167.02    1250.2486     0.867463   -1043.3309    2200.4647    1732.2507    1099.5975    918.89769   -598.03481   -614.34316    -499.0214    290.26973 
101040000   1.0104e+08    293.53587    101167.02    1313.6835     0.867463   -997.80666    2282.4734    1114.6588    1981.0071    845.38467   -699.63694   -250.82239    158.88838    293.54193 
101050000   1.0105e+08    294.87559    101167.02    455.58936     0.867463   -1116.6901    2178.5615    546.86191   -111.23572    931.14188   -220.65855     174.5422   -42.967715     294.8717 
101060000   1.0106e+08    283.64017    101167.02    540.98443     0.867463   -1117.8234    2051.8716    668.32407    1098.8083    -144.1791    99.377634   -556.47388     772.0754    283.65784 
101070000   1.0107e+08    290.45507    101167.02    1346.2134     0.867463   -1048.8152    2197.0367    1032.8582    1873.0383    1132.7436   -370.49216    273.55075   -526.71517    290.46313 
101080000   1.0108e+08    296.01364    101167.02    1657.0473     0.867463   -1076.0963    2231.8729    2429.0838    860.49452    1681.5637   -257.91311    439.50369    4.8284741    296.02527 
101090000   1.0109e+08    295.64059    101167.02    1318.5109     0.867463   -1093.2012    2210.5992    1860.7616    562.84945    1531.9217   -745.81592    113.14793    233.77589    295.64647 
101100000    1.011e+08     300.9169    101167.02    1362.4867     0.867463      -1005.6    2357.1635    1040.2391    1828.2923    1218.9288    415.86543   -168.77561    325.50617    300.91138 
101110000   1.0111e+08    285.72993    101167.02    1637.8709     0.867463   -914.22291    2278.8253    1380.1967    1029.5383    2503.8776   -230.35308   -299.59271    55.761329    285.74944 
101120000   1.0112e+08    299.03248    101167.02    1584.9808     0.867463   -1022.8767    2318.8283     2147.723    2003.1253    604.09408   -47.687609     979.8623   -1055.4978    299.03696 
101130000   1.0113e+08     296.5097    101167.02    1391.3438     0.867463   -1113.9632    2199.5495    1616.7004    1699.9291    857.40198   -418.45358   -263.43327   -4.2784669    296.50986 
101140000   1.0114e+08    292.54374    101167.02    366.40871     0.867463   -1132.3674    2136.8255   -71.378557    1235.5183   -64.913588      -351.79   -129.75097   -194.18591     292.5631 
101150000   1.0115e+08    304.88611    101167.02    1091.2609     0.867463   -1059.0796      2348.04    1013.5458    1163.3165    1096.9204   -116.11376   -193.11283    637.18621    304.90411 
101160000   1.0116e+08    296.62363    101167.02    870.24441     0.867463   -1016.6614    2298.1245    883.74344    1021.2425    705.74727    111.39264    232.44303   -331.35051    296.62266 
101170000   1.0117e+08    292.70764    101167.02    285.90535     0.867463   -1067.9267    2203.0978     1079.311   -319.48782    97.892911    -311.5173    282.52645    259.55077    292.71101 
101180000   1.0118e+08    300.91882    101167.02    524.22164     0.867463   -1094.8169     2267.968    1369.6154    256.24672   -53.197172    116.31313    443.91801   -170.90916     300.9182 
101190000   1.0119e+08    296.86037    101167.02   -209.14507     0.867463    -1042.948    2274.4836   -143.79626   -244.84287   -238.79607   -1335.7439   -142.25672   -31.895637    296.86364 
101200000    1.012e+08     288.1144    101167.02       450.66     0.867463   -1076.8431    2142.8517    525.68564    961.78739   -135.49301    -1164.191    403.56232    41.386686    288.10873 
101210000   1.0121e+08    300.82071    101167.02    785.01583     0.867463     -1092.05    2269.6385     790.2166    760.33115    804.49976   -58.338481   -282.76542    293.90723    300.80577 
101220000   1.0122e+08    292.65866    101167.02    592.10393     0.867463   -1011.2773    2259.1999    103.67486    813.80468    858.83226   -598.24974   -13.261108    11.209442    292.67107 
101230000   1.0123e+08    297.58295    101167.02    1956.0627     0.867463   -1115.3543    2210.1521    2116.9106     1103.121    2648.1564    394.42995    490.10561   -566.31453    297.57282 
101240000   1.0124e+08    290.51479    101167.02     1204.461     0.867463   -1066.7796    2179.7397    1159.9538    958.79079    1494.6384   -726.84912   -310.34244    147.44949    290.49952 
101250000   1.0125e+08    300.59749    101167.02    1363.9975     0.867463   -1139.3319    2219.8621    1450.4916     1350.721    1290.7798   -284.80854    153.90258   -818.12736      300.607 
101260000   1.0126e+08    291.53674    101167.02    1372.6382     0.867463   -1101.5687    2156.3709    1368.0824    1340.8448    1408.9873   -549.85908   -448.50334   -334.14876    291.53435 
101270000   1.0127e+08    295.60738    101167.02    1014.7628     0.867463   -1146.1733     2157.256    1060.7711    868.99982    1114.5174   -455.71219    134.94701    -612.4247     295.6067 
101280000   1.0128e+08    296.99001    101167.02    1137.4712     0.867463   -1063.6774    2255.2029    587.65208    1716.4958    1108.2656    104.80824    -4.206014    67.672504    296.97622 
101290000   1.0129e+08    301.04113    101167.02    351.65673     0.867463   -1069.8212    2294.3305    4.8544541    808.81709    241.29866   -390.78194   -26.387245   -132.50105    301.04432 
101300000    1.013e+08     295.1784    101167.02    993.01254     0.867463   -996.77375    2301.8617    1944.8983   -122.40903    1156.5483   -260.66932    -601.2255    270.01495    295.17652 
101310000   1.0131e+08    294.99562    101167.02    1564.5418     0.867463   -1114.1549     2182.438    1105.6176    1408.7492    2179.2586    151.97627   -61.966304    214.44507    294.99693 
101320000   1.0132e+08    296.43319    101167.02    1505.4956     0.867463    -1081.437    2231.2207    1638.9258    1654.9157    1222.6453   -532.52947    157.68361    240.41213     296.4457 
101330000   1.0133e+08    294.83891    101167.02    192.81041     0.867463   -1065.9822    2228.8594     621.2201   -187.61406    144.82518   -449.98161    -29.59419    285.40204    294.86535 
101340000   1.0134e+08    298.13597    101167.02    1219.8388     0.867463   -1045.7575    2285.9289    1477.5994    616.46083     1565.456    631.34486   -296.72722   -468.85999    298.14308 
101350000   1.0135e+08    289.68972    101167.02    1541.7817     0.867463   -1136.1731     2101.126    1079.8462     2408.792     1136.707    -123.6137    14.353236    584.59105    289.68984 
101360000   1.0136e+08    295.72061    101167.02    1233.0449     0.867463   -1160.6844    2144.0102    1646.3532    1147.9447    904.83669   -415.48966    316.08805    67.165057    295.71564 
101370000   1.0137e+08    293.88875    101167.02    1341.4629     0.867463   -1075.2952    2208.9282    1244.0806    1423.5386    1356.7695   -771.42369     187.6769    128.52892    293.88556 
101380000   1.0138e+08    294.00556    101167.02    1068.0879     0.867463   -1129.9925    2155.5364    1691.6714    411.00467    1101.5877   -880.78049   -6.5217836    254.73091    294.01429 
101390000   1.0139e+08    294.33777    101167.02    1902.0524     0.867463   -1098.6814    2190.5599    1859.0278    2017.8462    1829.2832    429.95046   -714.89521   -35.258436    294.34747 
101400000    1.014e+08    292.55571    101167.02    1202.0286     0.867463   -1137.0225    2132.3042    135.99962    1314.6938    2155.3925   -322.73771    244.65145   -159.27441    292.57399 
101410000   1.0141e+08    288.05303    101167.02    1059.9666     0.867463   -1110.0588    2108.9502    1085.1023    884.38691    1210.4107   -116.16873    382.20096    -3.739219    288.06163 
101420000   1.0142e+08    290.38966    101167.02      855.101     0.867463   -1202.6696    2042.4513    380.23632    1401.2761    783.79059   -590.70456    179.71064   -507.88561    290.39472 
101430000   1.0143e+08     291.2991    101167.02    676.47765     0.867463   -1132.5064    2122.7776    124.65007    911.97519    992.80769   -1016.0142    752.76906    496.43517    291.31409 
101440000   1.0144e+08    290.82823    101167.02     433.1017     0.867463   -1200.8939    2049.1282   -405.22489    692.42246    1012.1075    112.75299   -302.91663    130.63788    290.83622 
101450000   1.0145e+08     296.8075    101167.02    635.67449     0.867463   -1109.0572    2207.7835    243.31139    785.06388    878.64819   -181.53761    249.14815    55.820235     296.8133 
101460000   1.0146e+08     293.5781    101167.02    1828.4675     0.867463   -1152.9776    2127.7743    1671.1455    2160.3065    1653.9504   -21.319646    614.28185    -250.3605    293.57774 
101470000   1.0147e+08    299.13549    101167.02    2014.5238     0.867463   -1001.8061      2341.05    1696.4721    2544.5344    1802.5649   -383.25725    822.07524     452.7996    299.16006 
101480000   1.0148e+08    302.68953    101167.02      1764.38     0.867463   -1043.9197    2338.6531    1529.5865    1524.9685    2238.5848    41.917824    215.62917    219.40318    302.69353 
101490000   1.0149e+08    296.44537    101167.02    1544.9985     0.867463   -1077.4989     2235.295    1325.2856    1481.4153    1828.2945   -742.37354    -438.4496    616.12475     296.4505 
101500000    1.015e+08    293.51347    101167.02    1299.2286     0.867463    -1092.444    2187.5857    805.87348    1959.7655    1132.0468   -274.95026     399.8184   -118.02804    293.52064 
101510000   1.0151e+08    286.30169    101167.02    1297.5007     0.867463   -1142.5783    2056.8594    1520.6424    1122.7439    1249.1156    218.77376   -656.48633    533.27764    286.30702 
101520000   1.0152e+08     291.7728    101167.02    79.138201     0.867463   -1054.1296     2206.448   -279.63062    301.61951    215.42571    89.666821   -222.68398    218.99185    291.78613 
101530000   1.0153e+08    286.49629    101167.02     731.1544     0.867463   -1095.9266    2105.6857    660.29924     594.8668    938.29716   -298.97848    503.53212   -222.95286    286.49255 
101540000   1.0154e+08    298.71383    101167.02     546.3777     0.867463   -1097.4927    2240.6513    828.91409    231.94164    578.27738   -1007.2818   -237.81038    63.865073    298.70416 
101550000   1.0155e+08    293.03795    101167.02    754.28746     0.867463   -1147.6783    2127.0374    1289.2224    1163.6942   -190.05422   -38.045459    666.57658    362.70153    293.04157 
101560000   1.0156e+08     288.5368    101167.02    452.35368     0.867463   -1146.0711    2078.3441    1021.2151     289.1884    46.657578    -329.7176   -13.481598   -270.11784    288.55961 
101570000   1.0157e+08    294.34706    101167.02    1062.5996     0.867463   -1163.5275    2125.8176   -64.843454    1618.9653    1633.6769   -411.85132    103.60277    -268.5759     294.3559 
101580000   1.0158e+08     295.3513    101167.02   -42.450129     0.867463   -1093.0139    2207.5536   -168.04306    108.19222   -67.499543   -314.93521   -563.69815    52.465183    295.35375 
101590000   1.0159e+08    291.68578    101167.02    812.41028     0.867463   -1174.4816    2085.1236    615.68277    511.01339    1310.5347   -1265.6779   -20.935114    120.05379    291.68967 
101600000    1.016e+08     297.6469    101167.02    947.09252     0.867463   -1141.1433    2185.0778    454.40684     1131.014    1255.8567   -252.52757    29.082437     530.1576    297.64776 
101610000   1.0161e+08    291.43709    101167.02     1033.575     0.867463   -1103.4522    2153.3739    1103.2433    1415.1055    582.37604   -162.84489    500.65203    863.30253    291.44646 
101620000   1.0162e+08    293.20681    101167.02    847.97634     0.867463   -1094.8357    2181.7671    825.04384    1767.8151   -48.929938    -291.9367    129.46606   -859.20807    293.21605 
101630000   1.0163e+08    303.49185    101167.02    884.57849     0.867463   -1112.6189    2278.9199    545.53866    1837.3626    270.83424    398.04058   -460.97951    13.438004    303.49443 
101640000   1.0164e+08    290.56783    101167.02    678.96139     0.867463   -1051.2826    2195.8294    144.95291    1339.1302      552.801   -140.26007   -1.9867295    13.500248    290.57161 
101650000   1.0165e+08    296.41419    101167.02    273.69196     0.867463   -1070.9833    2241.4622   -352.46386    1244.8771   -71.337408   -746.03471   -126.44961    170.04919    296.41185 
101660000   1.0166e+08    299.83461    101167.02    1039.7602     0.867463   -997.41969    2353.2491    975.26812    1048.0217    1095.9907   -687.89067   -182.51112   -379.91509    299.83491 
101670000   1.0167e+08    296.25966    101167.02    1282.7225     0.867463   -1088.1283    2222.5902    1579.3627    1231.9581    1036.8468   -254.63799     143.7205    265.34028    296.26235 
101680000   1.0168e+08    297.18291    101167.02    443.25775     0.867463   -1113.2199     2207.816    -223.1162    1184.3438    368.54563   -326.01439     132.0594    774.07107    297.19241 
101690000   1.0169e+08     292.4164    101167.02    2330.7589     0.867463    -1137.931    2129.8389    2508.7113    1909.7266    2573.8386   -593.71401    449.17188     -301.876    292.42796 
101700000    1.017e+08    290.96478    101167.02    547.10137     0.867463   -1105.7655    2145.7824    610.60573    436.86635    593.83204   -254.84261    162.15071    1076.7435    290.97761 
101710000   1.0171e+08    294.13897    101167.02    829.75836     0.867463    -1040.214    2246.8057     468.6397     926.8998    1093.7356    -585.0623    307.41928    716.54157    294.15606 
101720000   1.0172e+08    292.79599    101167.02    1032.6926     0.867463   -1193.5815    2078.4303    1066.8592    777.76275    1253.4558    -914.0242   -723.06798    689.36462    292.79255 
101730000   1.0173e+08    300.37063    101167.02    1303.6198     0.867463   -1048.3552    2308.3036    598.76806    1549.0162    1763.0751   -1084.0112     291.8473     140.2391     300.3822 
101740000   1.0174e+08    296.80871    101167.02    153.05322     0.867463   -1146.4441    2170.4101   -608.85992   -269.68623    1337.7058    -260.8302    230.93302   -308.28763    296.79918 
101750000   1.0175e+08    296.39759    101167.02    1576.9182     0.867463     -1043.34    2268.9199    1528.7091    1604.2431    1597.8025   -96.325746   -319.54588    54.238722    296.41199 
101760000   1.0176e+08    292.39651    101167.02    821.41239     0.867463    -1149.645    2117.9026    661.24656    694.21631    1108.7743   -155.97684    61.161676    151.46907    292.41437 
101770000   1.0177e+08    303.31013    101167.02    872.63988     0.867463    -1137.271    2252.2369    495.18957    453.69306     1669.037    310.96138    730.13327    525.90848    303.31265 
101780000   1.0178e+08     297.7954    101167.02    1473.8829     0.867463   -1072.0638    2255.8167    1368.3947      1704.07    1349.1841   -607.17162   -525.36754    19.439876    297.80532 
101790000   1.0179e+08    292.65888    101167.02    1227.7417     0.867463   -1037.1528    2233.3268    1155.2171    1058.7519    1469.2563   -61.656854   -557.42828   -314.34139    292.66183 
101800000    1.018e+08    295.54647    101167.02    1801.8744     0.867463    -1144.636    2158.1125    893.77768    2681.4029    1830.4427   -307.64871   -35.738196    909.29596    295.56728 
101810000   1.0181e+08    295.58494    101167.02    987.40193     0.867463   -997.70307    2305.4754    83.396473    1618.6656    1260.1437   -310.41846   -753.03952   -349.63087    295.59165 
101820000   1.0182e+08    289.91906    101167.02    562.55051     0.867463   -1122.6246    2117.2374    1394.4866    999.69249    -706.5276   -439.33922   -320.52947   -150.37834    289.92174 
101830000   1.0183e+08    288.20051    101167.02    318.32338     0.867463   -1075.6692    2144.9879    521.32259    645.68339   -212.03585    86.095898   -61.127387    82.193707    288.21765 
101840000   1.0184e+08    291.16269    101167.02    861.61191     0.867463   -1137.9564    2115.8032    924.23726    952.10669    708.49176   -659.81788   -114.31216    271.68577    291.17721 
101850000   1.0185e+08    298.99082    101167.02     735.0725     0.867463   -1014.1316    2327.1079    325.96177    974.11812     905.1376   -40.752185    152.82023    731.88162    299.00132 
101860000   1.0186e+08     291.8112    101167.02    1364.6038     0.867463   -1117.3174    2143.6893    998.01547    1510.1644    1585.6316    469.20383   -22.485776   -495.23837    291.83829 
101870000   1.0187e+08    299.35907    101167.02    1243.0533     0.867463   -1052.2059    2293.1487    900.67656     1462.707    1365.7762   -490.17089   -283.06845    177.18714    299.35899 
101880000   1.0188e+08    294.18089    101167.02    256.56395     0.867463   -1121.9544    2165.5338    378.74347    776.39312   -385.44474   -500.66374   -201.63845   -320.49946    294.18399 
101890000   1.0189e+08    300.61951    101167.02    394.17778     0.867463   -1111.6697    2247.7704    638.84835    783.85985   -240.17486    88.025381   -430.33023    116.29384    300.62055 
101900000    1.019e+08    286.74149    101167.02    1190.0545     0.867463    -1113.267    2091.0854    687.41262    1179.3734    1703.3776   -643.50836   -417.09509   -567.14156    286.74926 
101910000   1.0191e+08    295.72671    101167.02    1116.8989     0.867463   -1133.9217    2170.8411    940.51136    965.36861    1444.8168   -542.26382    385.93233   -127.13269    295.72193 
101920000   1.0192e+08    285.96132    101167.02    298.21278     0.867463   -1068.5866    2127.0474   -1181.9323    1081.8449    994.72571   -224.65598    -93.83404    89.378314    285.96344 
101930000   1.0193e+08    289.63912    101167.02     519.9225     0.867463   -1120.5973    2116.1363   -333.26066    1481.3112    411.71693   -567.08425    705.40544    226.58633    289.63608 
101940000   1.0194e+08    294.98821    101167.02    1690.0807     0.867463   -1102.0555    2194.4545     1307.627    1508.6128    2254.0024   -45.194125    343.59778    330.09908    294.98147 
101950000   1.0195e+08    295.86343    101167.02    412.73273     0.867463   -1059.6919    2246.5987    87.824393    1509.8625   -359.48866   -514.51068   -675.13264    229.06224    295.87921 
101960000   1.0196e+08    292.09206    101167.02    1301.1535     0.867463   -1169.7449    2094.4005    1287.0642    1315.3159    1301.0803   -487.88123   -218.23398   -885.59215    292.10302 
101970000   1.0197e+08    294.26909    101167.02    1609.0563     0.867463   -1079.9313    2208.5425    2084.4851    607.33736    2135.3464   -300.98033   -12.507795   -530.01542    294.28658 
101980000   1.0198e+08    292.69086    101167.02    1164.1806     0.867463   -1081.9876    2188.8495    405.50184    1898.1318    1188.9083   -392.85653    6.7791064    368.94001    292.68403 
101990000   1.0199e+08    295.88231    101167.02     1722.666     0.867463   -1153.4497     2153.052    1902.8503    1729.4533    1535.6944    245.24713    86.704045   -52.483316    295.87096 
102000000     1.02e+08     294.0646    101167.02    1638.0649     0.867463   -1158.6345    2127.5541    1131.2464    1592.6002     2190.348   -11.625958    199.25145    151.92483    294.05908 
102010000   1.0201e+08    291.53119    101167.02    1723.5938     0.867463   -1111.9677    2145.9099    1251.4477     2093.892    1825.4416   -659.76585   -28.361357   -194.84766     291.5376 
102020000   1.0202e+08    291.71365    101167.02    1415.1496     0.867463   -1176.1921    2083.7246    1602.7063    1601.4655    1041.2771    196.89414    180.70273    46.060475    291.72894 
102030000   1.0203e+08    292.69567    101167.02    926.35184     0.867463   -1093.3712    2177.5196    1249.3702    383.74759    1145.9378   -260.34963   -333.51904     109.2908    292.69445 
102040000   1.0204e+08    285.01379    101167.02    871.06136     0.867463   -1065.0013     2120.044    1390.1208     1633.617   -410.55371    -30.44794    366.83816   -141.37117    285.02651 
102050000   1.0205e+08    291.38446    101167.02    858.26797     0.867463   -1129.9601    2126.2778    820.76211    1101.4968    652.54495   -591.37073   -153.45943   -588.36721    291.39996 
102060000   1.0206e+08    298.15348    101167.02    225.41045     0.867463   -1127.6773    2204.2048     136.3286    299.20903     240.6937   -351.06721    215.33547    738.48717    298.14961 
102070000   1.0207e+08    296.73347    101167.02    935.48566     0.867463   -1185.5312    2130.4822    1086.0801    1253.5028    466.87415    76.563893    555.25697   -7.1570711    296.74264 
102080000   1.0208e+08    290.56455    101167.02    1472.8999     0.867463   -1088.9616    2158.1138    1476.7609    1099.7239    1842.2149   -345.65784    322.39193   -92.150017    290.57753 
102090000   1.0209e+08    292.09514    101167.02    1937.3525     0.867463   -1119.8403    2144.3396    2045.3992    2591.8018    1174.8566   -406.69677    114.40523   -499.85938    292.11735 
102100000    1.021e+08    296.67869    101167.02    965.98783     0.867463   -1161.2799    2154.1213    414.08949    1946.6486    537.22537   -1115.6586   -731.22473    599.76673    296.69159 
102110000   1.0211e+08    291.78672    101167.02    892.71481     0.867463   -1037.4416    2223.2916    154.93009    1640.7865    882.42782   -186.66626    269.54303    263.59053    291.78338 
102120000   1.0212e+08    298.94552    101167.02    364.45793     0.867463   -1117.7223    2223.0108   -571.37598    745.46025    919.28952   -902.11892   -341.06376   -94.408578    298.96611 
102130000   1.0213e+08    294.54301    101167.02    1814.0276     0.867463   -990.61469    2300.9202    1013.5307    2171.0299    2257.5222   -148.49085    691.44417    682.48648    294.57107 
102140000   1.0214e+08    297.19169    101167.02     1332.487     0.867463   -1067.5316    2253.6024    1775.0344    872.76269    1349.6637   -544.11321    341.12732   0.68392139     297.2014 
102150000   1.0215e+08    296.46461    101167.02    1573.1027     0.867463    -1096.731    2216.2779    1651.6794    1844.1461    1223.4824   -763.88261   -574.24454   -542.99509    296.46521 
102160000   1.0216e+08    296.81291    101167.02    1034.7201     0.867463   -1024.7948    2292.1064    1260.7994    903.71157    939.64932   -22.141991   -551.32525     844.7173    296.82186 
102170000   1.0217e+08    286.07245    101167.02    1200.0875     0.867463   -1029.6784    2167.1975    901.99113    1347.0029    1351.2684   -266.59344    61.257033   -377.16454    286.06725 
102180000   1.0218e+08    289.93176    101167.02    1564.2747     0.867463    -1078.508    2161.4959    2368.5603    1771.6279    552.63596   -152.48107     132.1024   -232.53495    289.92922 
102190000   1.0219e+08    282.54331    101167.02    523.57874     0.867463   -1155.8851    2001.5525    371.94607    354.20182    844.58834   -556.05921   -506.68934   -397.43027    282.53991 
102200000    1.022e+08    288.93018    101167.02    1184.1512     0.867463   -1113.6878    2115.1234    995.42021    2121.4368    435.59669     90.71166   -3.0474238    86.356146     288.9312 
102210000   1.0221e+08    290.27356    101167.02    117.85258     0.867463    -1129.788    2114.0355    550.02569   -194.53662   -1.9313157   -381.73861    74.703836     -19.4022    290.27912 
102220000   1.0222e+08    287.55396    101167.02    865.51341     0.867463   -1039.3842    2174.0477    236.06397    1098.7099    1261.7664    146.10392   -800.78221   -627.36032    287.53818 
102230000   1.0223e+08    287.45888    101167.02    238.29317     0.867463   -1081.0422    2131.3272   -475.00999    506.78943    683.10008    76.482551   -270.19216   -633.38781    287.46229 
102240000   1.0224e+08    289.98271    101167.02    625.04072     0.867463   -1143.8932      2096.68    425.86133    845.82457    603.43627   -87.578885    237.83767   -803.74432    290.00404 
102250000   1.0225e+08    292.36184    101167.02    1418.4055     0.867463   -1089.9975    2177.1627    1094.6325     1302.086    1858.4978   -764.08975   -330.39522    289.01976    292.36787 
102260000   1.0226e+08    294.29052    101167.02    40.220307     0.867463   -1037.2953    2251.4179    416.47757    1.8270795   -297.64372   -445.26668   -256.16453    646.74677     294.2883 
102270000   1.0227e+08    292.62403    101167.02    1442.1478     0.867463   -1028.0587    2242.0315    866.28697    1614.8192    1845.3372    -438.1261   -520.53122    584.17301    292.62925 
102280000   1.0228e+08    288.65805    101167.02     1423.136     0.867463    -1039.933    2185.8372    306.30515    1602.9465    2360.1562   -618.94257    258.18198    222.29876    288.66361 
102290000   1.0229e+08    294.76044    101167.02    549.24253     0.867463   -1063.7481    2230.2166    2.0186745    1233.3017    412.40718   -1199.5174    -71.36463     566.9899    294.76061 
102300000    1.023e+08    295.16928    101167.02    938.23776     0.867463   -1064.7932    2233.7403    456.92596    1408.3199    949.46741    25.904922    362.48372   -556.92651    295.17444 
102310000   1.0231e+08    292.05736    101167.02    592.80544     0.867463   -1201.9751    2061.7825   -229.65241    936.59036    1071.4784   -410.80842    4.2384285    80.738302    292.06088 
102320000   1.0232e+08    296.79226    101167.02    1718.3202     0.867463    -1115.541    2201.1294    944.22059    1295.3325    2915.4076   -1260.1637   -56.471276    79.636461    296.79305 
102330000   1.0233e+08    291.52202    101167.02    1481.8159     0.867463    -1101.694    2156.0811    987.68819    1787.9802    1669.7793   -316.72533    545.40473    86.480941    291.51094 
102340000   1.0234e+08    296.21266    101167.02    1201.2895     0.867463    -1033.381    2276.8123    1108.9293    959.55756    1535.3816   -608.10379    -72.71858   -493.71044    296.22928 
102350000   1.0235e+08    289.67849    101167.02      870.104     0.867463   -1107.6904    2129.4832   -52.989566    1293.1452    1370.1564   -812.06316    174.15416      152.685    289.67915 
102360000   1.0236e+08    289.87726    101167.02    672.25704     0.867463    -1044.624    2194.7709    376.84644    588.25595    1051.6687    42.496028    65.579144    195.61433    289.89185 
102370000   1.0237e+08    292.70346    101167.02    1512.0113     0.867463    -976.4903    2294.4875    1015.8346     2150.924    1369.2751   -2.0806682    34.449561    204.43062    292.70001 
102380000   1.0238e+08    288.87265    101167.02    1285.5869     0.867463   -1026.8501    2201.3182    1008.0839    2145.1059    703.57074   -240.88789   -223.37418    307.28865    288.88212 
102390000   1.0239e+08    294.73504    101167.02    1525.5356     0.867463   -1056.6567    2237.0241    1222.1403    1422.8482    1931.6183   -500.63378    422.18761    -301.3293    294.74758 
102400000    1.024e+08    289.10895    101167.02    910.00007     0.867463   -1138.2938    2092.5151    838.71754    1137.3546    753.92807     95.20064   -324.91324    -28.02733    289.09845 
102410000   1.0241e+08    301.41653    101167.02    1598.2659     0.867463   -1008.8383    2359.5086    1169.7344    2564.9011    1060.1623   -110.46733   -640.91982   -455.83565    301.41988 
102420000   1.0242e+08    301.76913    101167.02    1351.6638     0.867463   -1144.0716    2228.2156    1537.6878    1415.1963    1102.1072    264.45892   -140.64429   -352.56916     301.7483 
102430000   1.0243e+08    294.89868    101167.02    1808.7698     0.867463    -1118.275    2177.2346    1662.6601    1948.4057    1815.2437   -304.21368   -198.10007   -489.39088    294.91036 
102440000   1.0244e+08       291.36    101167.02    1457.5081     0.867463   -1117.1199    2138.8447    2145.0031    991.76953    1235.7516    45.837524    817.72109   -63.903205    291.38637 
102450000   1.0245e+08    286.90101    101167.02    1823.9908     0.867463   -1064.3106    2141.8245    1661.0169    1768.9957    2041.9599    207.22366    104.54971   -952.44347    286.91997 
102460000   1.0246e+08    296.42845    101167.02    1231.2091     0.867463   -1097.8632    2214.7416    1750.7757    1410.0036    532.84798    372.20183    47.185346   -327.92471     296.4271 
102470000   1.0247e+08    291.94598    101167.02     1009.627     0.867463   -1123.1913    2139.3216    1137.0538    1677.2103    214.61675    132.45706    178.80577   -359.60247    291.95161 
102480000   1.0248e+08    293.29349    101167.02    1832.4691     0.867463   -1153.8757    2123.6957    1847.4923    1838.9767    1810.9384    96.763637     11.32518    60.771534    293.30739 
102490000   1.0249e+08    293.10724    101167.02    1642.3385     0.867463     -1111.59    2163.9001    2558.0736    1300.6498    1068.2923   -495.26573   -334.17881   -1130.5231    293.11416 
102500000    1.025e+08    291.35284    101167.02    797.76277     0.867463   -1188.7983    2067.0863    42.274894     1549.297    801.71645   -400.88832    639.22797   -379.50335    291.36839 
102510000   1.0251e+08    291.39116    101167.02    757.57441     0.867463   -1114.7833    2141.5296    480.15021    1705.7285    86.844519   -386.29131    649.26352   -140.54264    291.39434 
102520000   1.0252e+08    291.64144    101167.02    1289.6629     0.867463   -1089.1344    2169.9752    1060.5765    1080.3882    1728.0241   -924.20839    116.66844   -228.31524     291.6284 
102530000   1.0253e+08    285.28879    101167.02    1179.3986     0.867463   -1085.8778    2102.2406    1067.8741     1679.538    790.78365    89.272591     201.6747    37.932386    285.30445 
102540000   1.0254e+08    293.67627    101167.02    1124.2863     0.867463   -1113.5807    2168.2683    1652.5057    1080.1957    640.15752   -321.59142   -628.76498   -659.18152    293.66598 
102550000   1.0255e+08    289.30945    101167.02    972.73978     0.867463   -1107.1478    2125.9018    1250.5874    636.25096    1031.3809   -415.80022   -306.67378    108.72722    289.31456 
102560000   1.0256e+08    291.81494    101167.02    306.43965     0.867463   -1163.0986      2097.95    319.54245    146.17964    453.59686    -800.3545   -577.97007    370.51214    291.81421 
102570000   1.0257e+08    288.36904    101167.02    1620.1076     0.867463    -1104.831    2117.7094    2080.8481     1523.158    1256.3167    51.499112    135.09713    76.056643    288.37877 
102580000   1.0258e+08    296.69879    101167.02    1316.9842     0.867463   -1098.5978    2217.0281    1917.6013    1787.7091    245.64228   -211.76627    70.230483    -126.6172    296.70989 
102590000   1.0259e+08    294.83742    101167.02    720.42407     0.867463   -1032.7797    2262.0453   -1.8221956     988.6585    1174.4359     -383.239   -763.10486   -230.51876    294.84664 
102600000    1.026e+08    295.53784    101167.02    1875.3619     0.867463   -1085.4743    2217.1779    2679.3745    2135.1314    811.57994   -645.57598   -30.928077     -697.584    295.54219 
102610000   1.0261e+08    296.16987    101167.02    522.47028     0.867463   -1060.7815    2248.9337    213.89704    1135.2372    218.27658    141.32824    11.113869   -1167.1139    296.18247 
102620000   1.0262e+08    292.10342    101167.02    1275.2234     0.867463   -1059.7999    2204.4724    909.52039    1652.4972    1263.6525   -983.75007   -170.23703    1065.5571    292.11863 
102630000   1.0263e+08    292.11743    101167.02    609.50549     0.867463   -1022.0071    2242.4218   -144.92491    1899.0833    74.358044    -104.8496  -0.94069697   -875.25436    292.13854 
102640000   1.0264e+08    296.53221    101167.02    897.56863     0.867463   -1099.2972    2214.4671    1656.3581    228.64869    807.69908   -629.35133    1004.2352    846.85906    296.54296 
102650000   1.0265e+08    295.20748    101167.02    197.25696     0.867463   -995.72764    2303.2327   -353.84346    809.64345    135.97089   -192.24271    312.46591   -444.75118    295.20863 
102660000   1.0266e+08    286.49694    101167.02    1588.0459     0.867463   -1131.3039    2070.3158    1601.8107    1876.7318    1285.5952    370.43662     296.9721    111.92909    286.51232 
102670000   1.0267e+08    289.79791    101167.02     1280.069     0.867463   -1045.4314    2193.0767    1935.6731    604.41207    1300.1217    3.0313421    11.477457    22.648201    289.80178 
102680000   1.0268e+08    290.34491    101167.02    1084.1854     0.867463   -1007.4808    2237.1402    1539.0372    299.79753    1413.7213   -372.87039   -631.54089   -192.15114    290.34686 
102690000   1.0269e+08    290.03874    101167.02     2.877571     0.867463   -1063.2767    2177.9226   -215.22507    902.93283   -679.07506    185.50669   -292.59045    335.43185    290.03433 
102700000    1.027e+08    295.22919    101167.02    2108.2718     0.867463   -1061.8527    2237.3503    2850.7622    1767.6776    1706.3757     1.270696    36.610158   -311.75829    295.24111 
102710000   1.0271e+08    295.96937    101167.02     247.3166     0.867463   -1071.0068    2236.4678   -249.32433    1373.5813   -382.30716   -217.91538    116.79837    -928.0861    295.97264 
102720000   1.0272e+08    294.52617    101167.02    477.12605     0.867463   -1087.3464    2204.0002    612.04477    897.71424   -78.380873   -376.52079   -262.19357   -456.98451    294.52176 
102730000   1.0273e+08    290.71832    101167.02    1054.7775     0.867463   -1064.0963    2184.6975    1091.8214    979.77611    1092.7349   -319.83567    168.89847   -231.44594    290.73627 
102740000   1.0274e+08    293.61765    101167.02    290.48478     0.867463   -1119.4012    2161.7927    254.47986   -498.42444    1115.3989   -122.82901   -289.18875    -428.0411    293.61972 
102750000   1.0275e+08    289.87305    101167.02     826.8241     0.867463     -1183.94    2055.4079    598.35982     1033.878    848.23452   -388.35463     -128.459    298.26347    289.85762 
102760000   1.0276e+08    300.27642    101167.02    856.49133     0.867463   -1152.5876    2203.0185   -448.09313    1760.4264    1257.1407    643.33268   -266.49811   -735.27498    300.27823 
102770000   1.0277e+08    295.84438    101167.02    1956.1224     0.867463   -1211.3123    2094.7654    1468.9279    2030.5624    2368.8768   -654.92289   -94.736659   -506.14258    295.85799 
102780000   1.0278e+08    294.20631    101167.02    780.08048     0.867463   -1076.0172     2211.755    514.28691    1678.9756    146.97895   -233.67355    267.91456   -249.19495    294.20991 
102790000   1.0279e+08    285.43504    101167.02    1478.9374     0.867463   -1061.9934    2127.7594    1226.2401    1310.8257    1899.7465   -916.19813    440.22753    120.28995    285.43991 
102800000    1.028e+08    295.08016    101167.02    215.47886     0.867463   -1155.6358    2141.9018    947.11255   -515.85107    215.17511   -576.22974    383.00055    216.36431    295.08338 
102810000   1.0281e+08    296.73932    101167.02    285.77699     0.867463   -1107.4603    2208.6185    728.07563    351.30667   -222.05133   -729.93484    352.13671    69.157301    296.73796 
102820000   1.0282e+08    297.75529    101167.02    463.46875     0.867463   -1120.1353    2207.2971    189.66228    1166.1308    34.613169   -856.64479   -22.638567    -468.7226    297.76176 
102830000   1.0283e+08     296.5424    101167.02    1189.4865     0.867463   -1166.0406    2147.8376    847.74961     1188.973    1531.7367    -404.2187    404.00646    137.36526    296.54262 
102840000   1.0284e+08    291.91786    101167.02    997.67991     0.867463     -1028.13    2234.0687     950.0778    1901.4759    141.48602   -81.234051    360.50397    311.34718    291.93008 
102850000   1.0285e+08     288.5723    101167.02    1972.0058     0.867463   -1017.9998    2206.8121    1949.6079    2426.5674    1539.8423    355.44982   -202.75405   -460.50168    288.56648 
102860000   1.0286e+08    295.32616    101167.02    83.617346     0.867463   -1186.7361    2113.5506   -506.17861    460.84812    296.18253   -274.59144    895.21763    347.48768     295.3356 
102870000   1.0287e+08    287.73745    101167.02    741.04046     0.867463   -1197.2481    2018.2343    979.67997    872.25787    371.18354    271.01607    7.9273555   -399.97591    287.75201 
102880000   1.0288e+08    292.94458    101167.02    934.55779     0.867463   -1153.2209    2120.4515    315.83429     678.4212    1809.4179   -613.28223    27.377983   -80.061794    292.95217 
102890000   1.0289e+08    290.01741    101167.02    1066.5618     0.867463   -1176.9442    2064.0169    1422.7257    881.25394    895.70573   -328.07566   -190.41142    279.78468    290.03018 
102900000    1.029e+08    287.38857    101167.02     1663.754     0.867463   -1104.5989    2106.9847    2789.6493     810.0625    1391.5502    193.90729    120.71895    605.00848    287.39308 
102910000   1.0291e+08    295.84393    101167.02    382.45275     0.867463    -1111.112    2194.9607   -261.52052    1121.4473    287.43149   -403.35269    116.77467   -136.45063    295.86021 
102920000   1.0292e+08    289.13516    101167.02    352.03068     0.867463   -1085.7293    2145.3726    1252.7357   -413.91772    217.27406   -140.55837    42.637355   -362.21865    289.14453 
102930000   1.0293e+08    295.76119    101167.02     1069.468     0.867463   -1168.2948    2136.8533    1263.0683    1452.9812    492.35469    365.32347    119.48731   -96.844105    295.74766 
102940000   1.0294e+08    296.55144    101167.02    568.94797     0.867463   -1006.1885    2307.7907   -253.84934    919.98889    1040.7044   -434.45933    -588.8129    39.528434    296.56151 
102950000   1.0295e+08    292.61312    101167.02     1170.081     0.867463   -1127.8222    2142.1461    613.23046    1822.1943    1074.8181    -447.8949   -424.19495    436.29903    292.62066 
102960000   1.0296e+08    282.68048    101167.02    361.74084     0.867463   -1030.5421    2128.4283   -392.30331    1137.6913    339.83452   -90.943353    292.23079    393.19029    282.69796 
102970000   1.0297e+08    290.76491    101167.02    1311.1181     0.867463   -1187.6136    2061.7007    930.41113    1612.8025    1390.1408   -429.56079    207.94888   -337.50452    290.77058 
102980000   1.0298e+08    296.11572    101167.02    1147.4865     0.867463   -1016.7228    2292.3872    1205.2699     677.5995    1559.5901   -121.97824   -10.603559   -535.35892    296.11486 
102990000   1.0299e+08    297.04175    101167.02    1276.8683     0.867463    -1075.525    2243.9334    1757.7897     727.4254    1345.3897   -416.24123    424.63881   -104.90092    297.06238 
103000000     1.03e+08    294.39142    101167.02    1608.8563     0.867463   -1121.7567    2168.0842     1462.831    1526.4689    1837.2691   -988.71436    257.04291     -670.384     294.3869 
103010000   1.0301e+08     289.3714    101167.02    961.72621     0.867463    -1086.994    2146.7478    1092.6092    1405.7374    386.83201     331.0842   -376.36774    -372.4269    289.37753 
103020000   1.0302e+08    291.06837    101167.02    1465.4651     0.867463   -1114.3788    2138.3269    1806.2681     1895.219    694.90818   -503.69727   -144.35314    67.371706    291.08238 
103030000   1.0303e+08    295.07453    101167.02    740.11941     0.867463   -1146.3848    2151.0899    1470.4261   -136.84387    886.77602   -250.52706    -547.7772   -481.09082    295.08994 
103040000   1.0304e+08    303.06806    101167.02   -341.39423     0.867463   -1114.6793    2272.1235   -143.19993   -298.64876   -582.33401    -118.7569    38.751149    163.07979    303.07192 
103050000   1.0305e+08    295.38435    101167.02    71.052993     0.867463   -1214.6382    2086.2987   -450.87751    375.80302    288.23347   -400.68571    -436.6984   -66.680591    295.39229 
103060000   1.0306e+08    292.07188    101167.02    752.66883     0.867463   -1141.3002    2122.6197    281.16453    1518.5475    458.29444   -529.89166   -142.74062    33.585467    292.07678 
103070000   1.0307e+08    296.90707    101167.02    1655.0074     0.867463   -1035.3383    2282.6151    1264.6712    1841.2528    1859.0983   -323.93786    342.07487   -491.53248    296.93524 
103080000   1.0308e+08    286.64118    101167.02    1462.8163     0.867463   -1073.2468    2129.9847    1181.6605    1159.6935    2047.0948   -397.13403   -202.62964   -149.90808    286.63298 
103090000   1.0309e+08    292.89189    101167.02    828.17642     0.867463   -1197.3684    2075.7151    439.67511    755.80622    1289.0479   -766.99347   -82.693716   -271.89889    292.90494 
103100000    1.031e+08    290.80878    101167.02    722.86812     0.867463   -1074.6567    2175.1479    574.13305    927.33855    667.13275   -635.73755    1138.0333   -364.40047    290.80536 
103110000   1.0311e+08    290.16426    101167.02    1835.8196     0.867463   -1075.7785    2166.8236    1095.5509    2733.2506    1678.6573   -395.02126    185.66181    824.59283    290.17424 
103120000   1.0312e+08    293.33038    101167.02    2015.7357     0.867463   -1020.8089    2257.1748    1669.2736    2133.8453    2244.0882   -429.31245    277.66288    459.78792    293.34051 
103130000   1.0313e+08    296.62949    101167.02    1000.4718     0.867463   -1114.3325    2200.5189    1192.2523    953.71715    855.44602   -258.94489    72.111219    533.13837    296.64072 
103140000   1.0314e+08     297.8025    101167.02    1081.2583     0.867463   -1062.6175    2265.3424    919.88157    745.03633    1578.8571   -4.6450459   -155.22046    115.97597    297.81132 
103150000   1.0315e+08    297.07693    101167.02    769.45997     0.867463   -1154.4912    2165.3604    161.20835     1022.934    1124.2376   -1105.5067   -420.72821   -584.11014     297.0827 
103160000   1.0316e+08    291.27964    101167.02    770.59162     0.867463   -1149.0977    2105.9689   -156.71194    1660.4263     808.0605   -205.17118   -131.34369    87.088822    291.26499 
103170000   1.0317e+08    294.37238    101167.02    1216.6112     0.867463   -1016.1536    2273.4746    1304.7772    1663.6751    681.38137     553.1426    337.89461   -23.691317    294.36328 
103180000   1.0318e+08     288.2456    101167.02    680.88265     0.867463   -1106.9066    2114.2544    1280.9977    838.31925   -76.668972   -798.95276    53.725172   -218.36075     288.2557 
103190000   1.0319e+08    290.80377    101167.02    884.66273     0.867463   -1084.2342    2165.5145    931.41672     1304.075    418.49642   -195.00927    307.45165   -510.86612    290.81943 
103200000    1.032e+08    292.02295    101167.02    973.47928     0.867463   -1083.6564    2179.7167    1069.7348    353.03972    1497.6633   -629.10111    -130.8162   -333.46323    292.01925 
103210000   1.0321e+08    293.70077    101167.02    579.30827     0.867463   -1105.2989    2176.8239    247.81221    169.93999    1320.1726   -619.29042     -292.158    242.69653    293.72107 
103220000   1.0322e+08     292.4225    101167.02    1348.4967     0.867463   -1068.0723    2199.7658    317.65676     1855.395    1872.4382   -63.622807   -536.24664    255.97013    292.42839 
103230000   1.0323e+08    291.48815    101167.02    819.45183     0.867463   -1107.6194    2149.7773    46.896816    1368.8224    1042.6363     -73.9895    -233.9829    256.43698    291.48938 
103240000   1.0324e+08    279.89779    101167.02    77.852554     0.867463   -1178.3915    1949.4822   -1265.9686    721.38996    778.13633   -246.27353    -527.8888    75.524315    279.91805 
103250000   1.0325e+08    288.69918    101167.02    446.30282     0.867463   -1126.7814    2099.4483    637.69529   -507.27839    1208.4916   -894.87945    165.64049    352.82611    288.67996 
103260000   1.0326e+08    290.04275    101167.02    1718.0533     0.867463   -1140.5216    2100.7226      2125.68    1027.3051    2001.1748    -418.9391   -131.01329   -726.12431    290.05495 
103270000   1.0327e+08    290.78614    101167.02   -558.93457     0.867463   -1140.6118    2108.9398   -765.60953   -683.07914   -228.11503   -259.73719    91.774153   -236.73312    290.80885 
103280000   1.0328e+08    295.13916    101167.02     913.1014     0.867463   -1084.6519     2213.545    1074.3971      831.583    833.32412    500.70739     188.1593    571.71447     295.1426 
103290000   1.0329e+08    299.35234    101167.02    1035.7337     0.867463   -1093.7662    2251.5133    921.93678    1018.4401    1166.8241   -270.14713   -48.311837   -318.32885     299.3744 
103300000    1.033e+08    292.17649    101167.02    795.56946     0.867463   -1121.2154    2143.8735    771.67201    1344.7068    270.32954   -420.84172   -105.35631    437.90302    292.17818 
103310000   1.0331e+08    289.91727    101167.02    750.61514     0.867463   -1090.2035    2149.6384    901.16012    714.83652     635.8488   -472.72946    690.63054   -257.71406     289.9115 
103320000   1.0332e+08    296.07831    101167.02    1448.4261     0.867463   -1112.9912    2195.7008    1040.6212    1533.7222     1770.935   -116.40588    -234.6548    -11.26645    296.08584 
103330000   1.0333e+08    292.94575    101167.02    878.56778     0.867463    -1093.446    2180.2394    672.10557    501.95174     1461.646    -510.3082   -46.659066    420.06814    292.91989 
103340000   1.0334e+08     293.4116    101167.02    725.54403     0.867463    -1066.918    2211.9733    1797.5597    162.82721    216.24519    302.89319   -269.03314    103.53472     293.4308 
103350000   1.0335e+08    298.94055    101167.02     1035.992     0.867463   -1139.4182    2201.2595    1192.4011    2058.5123   -142.93718   -512.45505    225.99765     95.98673    298.93078 
103360000   1.0336e+08    296.32154    101167.02    676.25405     0.867463   -1093.0167    2218.3933    203.39465    1184.7051     640.6624   -26.487517    38.862486    58.821597    296.31263 
103370000   1.0337e+08    292.51954    101167.02    1054.7218     0.867463   -1047.8474    2221.0751    972.19682    834.60896    1357.3596   -247.89468    215.76949   -728.04938    292.52205 
103380000   1.0338e+08    291.06688    101167.02    790.92935     0.867463   -1071.3054    2181.3835    732.70667    468.98463    1171.0968   -619.23689   -536.81801    234.55221    291.07792 
103390000   1.0339e+08    298.08952    101167.02    1074.3432     0.867463   -934.90464    2396.2627    385.05723    1331.2538    1506.7187   -357.78467    62.903718   -142.83345    298.10082 
103400000    1.034e+08    290.80333    101167.02    1228.8941     0.867463   -1046.8598    2202.8839    1361.7277     1894.039    430.91578   -1078.0395    625.66261    231.39944     290.8014 
103410000   1.0341e+08    299.05679    101167.02    1451.0247     0.867463   -1098.5207     2243.456    1443.9233     1460.936    1448.2149   -390.82957    31.098408   -73.950945    299.05674 
103420000   1.0342e+08    292.60204    101167.02    1018.9888     0.867463   -1091.5275    2178.3169    -208.5785    2141.2132    1124.3318   -20.263264    164.24808    777.95577    292.61295 
103430000   1.0343e+08    290.89555    101167.02    1490.9761     0.867463   -1079.5096    2171.2647    1656.0835    1523.7415    1293.1032   -458.98272    379.04832   -530.26139    290.88976 
103440000   1.0344e+08    296.43259    101167.02    774.90534     0.867463   -1065.9489    2246.7022    310.90345     1021.839    991.97353   -517.06318    34.813135    433.51597    296.43356 
103450000   1.0345e+08    293.56956    101167.02    1691.3199     0.867463   -1092.8926    2187.7639    1062.0335    1242.7438    2769.1823    197.22274    402.93732    262.14686    293.57794 
103460000   1.0346e+08     285.1971    101167.02    1911.2738     0.867463   -1022.9206    2164.1732    1963.0833    1610.1864    2160.5517   -427.52713   -75.023965   -403.60735    285.20205 
103470000   1.0347e+08     287.4247    101167.02    1202.3452     0.867463   -1014.0388    2197.9486    1799.7342     1326.662    480.63939    436.76323    405.43552   -470.37626    287.42554 
103480000   1.0348e+08    296.17074    101167.02     711.4592     0.867463   -1093.7917    2215.9331   -535.54792    951.90446    1718.0211      259.614    595.25412    211.90042    296.17413 
103490000   1.0349e+08    295.45532    101167.02    1389.1992     0.867463   -1121.4637    2180.2663    1607.5825    1398.2727    1161.7423   -281.84054    376.92717     -411.851    295.45836 
103500000    1.035e+08     294.9991    101167.02    1086.9142     0.867463   -1019.1424    2277.4893     1675.756    1072.2783    512.70834    -384.8658    47.448441   -77.363462    295.02242 
103510000   1.0351e+08    295.09168    101167.02    1564.1214     0.867463   -979.62326     2318.043    1660.2627    1661.9078    1370.1936     42.35925   -30.435651   -47.831686    295.09972 
103520000   1.0352e+08    285.78223    101167.02    420.02242     0.867463   -1076.8315    2116.8011    468.96212    172.88895    618.21619   -102.33817     211.4102   -201.65094    285.79253 
103530000   1.0353e+08    293.61201    101167.02    506.90154     0.867463    -1070.536    2210.5949     259.4927    658.26761    602.94431   -234.84241    140.17614   -94.971767    293.60365 
103540000   1.0354e+08    291.82522    101167.02    934.96331     0.867463   -1149.0398    2112.1237    35.099739    449.07385    2320.7163   -1004.2194    557.39339   -160.61428    291.84614 
103550000   1.0355e+08    294.04193    101167.02    669.01627     0.867463    -1164.083    2121.8523    376.68401    1189.1533    441.21153   -335.62881    378.51884     -325.481    294.05213 
103560000   1.0356e+08    303.67071    101167.02     1276.407     0.867463   -1099.5892    2293.9483    1215.3911    1331.1411    1282.6889   -611.60115     125.1494    728.51641    303.66867 
103570000   1.0357e+08    299.99329    101167.02    1518.6704     0.867463   -991.48385    2360.9582    1920.0811    1490.3957    1145.5343   -317.75132   -687.52155   -268.46345     299.9984 
103580000   1.0358e+08    292.19872    101167.02    1253.8509     0.867463   -1097.6511    2167.6863    1859.4271    1346.7005    555.42523    327.58308   -10.751539   -151.88952    292.19179 
103590000   1.0359e+08    291.33747    101167.02    1860.9346     0.867463   -1049.0566    2206.6561    2353.7596     873.0079    2356.0363   -102.38189    384.85773    294.86533    291.34701 
103600000    1.036e+08     293.6257    101167.02    1013.2806     0.867463   -1031.5956    2249.6883    274.47349    1603.2732    1162.0951   -779.84292   -907.58096   -95.347605     293.6183 
103610000   1.0361e+08    294.75948    101167.02    695.28377     0.867463   -1020.8878    2273.0662    707.80779    1453.0749   -75.031398    -904.4426    278.37651    76.814733     294.7677 
103620000   1.0362e+08    295.45226    101167.02    525.40561     0.867463   -1061.2135    2240.4823    -337.3068    699.82328    1213.7004   -233.81847    930.24223    239.85774      295.434 
103630000   1.0363e+08    289.41789    101167.02     1535.033     0.867463   -1143.2748    2090.9866    2082.7502    1650.0894    872.25944   -664.77933    376.87704   -260.02823    289.41713 
103640000   1.0364e+08    287.54406    101167.02    624.70617     0.867463   -1118.0041    2095.3172     829.2288     846.3865     198.5032   -142.99297    701.27662    837.41699    287.54499 
103650000   1.0365e+08    297.38485    101167.02    1216.9774     0.867463   -1035.3927       2287.9    1215.9491    1582.2578    852.72532    21.355153    524.91501    254.01169    297.38247 
103660000   1.0366e+08    295.20014    101167.02     1302.845     0.867463   -1056.6269    2242.2515    336.52334    1358.9406    2213.0709    -86.06246     130.6347     92.94668    295.19756 
103670000   1.0367e+08    296.06406    101167.02    1204.3414     0.867463   -1128.5915    2179.9413    1117.4413    1595.8671     899.7158   -685.38804    100.17855   -211.79347    296.07369 
103680000   1.0368e+08    289.78354    101167.02    332.45463     0.867463   -1028.0589    2210.2886    95.437171     542.5122    359.41451    -820.6603   -34.471036   -149.27659    289.79377 
103690000   1.0369e+08    295.54054    101167.02    1274.1841     0.867463   -1087.7273     2214.955    662.18585    1046.0473    2114.3192   -1.8427704    10.900202   -461.77025    295.54124 
103700000    1.037e+08    289.85743    101167.02    881.04613     0.867463   -1041.6271    2197.5461    84.550668    1350.7242    1207.8635   -478.36747   -481.34743    948.04224    289.84985 
103710000   1.0371e+08    294.08463    101167.02    1040.3006     0.867463   -1093.3995     2193.013    1055.0974    947.03205    1118.7724    486.03375   -341.16585    660.51961    294.10279 
103720000   1.0372e+08    292.65983    101167.02    1270.5903     0.867463    -1124.338    2146.1523    1582.2976    1092.7581    1136.7151   -982.19276   -614.95556     499.9795    292.65417 
103730000   1.0373e+08    295.73495    101167.02    1382.1287     0.867463   -1177.4394    2127.4155    1246.5258       1377.1    1522.7601   -730.09567   -492.11293    261.96254    295.76154 
103740000   1.0374e+08    297.23002    101167.02    1912.7126     0.867463    -1113.321    2208.2414    1956.0425    2367.8848    1414.2107   -943.28158    296.68235    773.22982    297.25251 
103750000   1.0375e+08    293.74524    101167.02    1438.5248     0.867463   -1104.5306    2178.0892    2203.5541    690.55385    1421.4663   -569.47103    237.48409    155.20618    293.74606 
103760000   1.0376e+08    284.89934    101167.02    718.44336     0.867463    -1142.142    2041.6243    1840.3114    55.915319    259.10333   -733.88326    504.29758   -626.08294    284.90287 
103770000   1.0377e+08    297.54249    101167.02    1651.3846     0.867463   -1131.7412     2193.313    2170.3965    900.19283    1883.5643   -262.84475   -578.83664    8.1926062    297.54862 
103780000   1.0378e+08    295.00076    101167.02    1281.9672     0.867463   -1115.5505    2181.0998    552.51078    1300.1556    1993.2354    77.163299    277.30911    293.78055    295.01059 
103790000   1.0379e+08    296.01759    101167.02    952.16114     0.867463   -1120.6789    2187.3345    173.83519    1634.4407    1048.2076   -745.36261    533.47451   -190.31799    296.03156 
103800000    1.038e+08     288.5801    101167.02     1432.773     0.867463   -1095.3565    2129.5425    1171.2984    1305.4835    1821.5371   -370.06077   -353.83941   -304.13757    288.58679 
103810000   1.0381e+08    297.54337    101167.02    831.89144     0.867463      -1109.3    2215.7641    483.32472    707.34908    1305.0005   -344.36087    721.57443    519.27007    297.54716 
103820000   1.0382e+08    289.19783    101167.02    1139.1886     0.867463   -1063.7529    2168.0493    1309.2757    1502.1333    606.15674   -172.77398   -3.3618916    757.22716     289.1937 
103830000   1.0383e+08    292.99419    101167.02    1042.4533     0.867463    -1178.822    2095.4047    587.13689    1217.9243    1322.2986    63.474478   -519.41924   -336.93639    293.00059 
103840000   1.0384e+08    296.60226    101167.02    1364.5776     0.867463   -1134.2573    2180.2898    1432.2534    1264.7634    1396.7159   -905.74187    11.526041   -155.14761      296.616 
103850000   1.0385e+08    290.33035    101167.02    1349.3377     0.867463   -1046.0173    2198.4409    279.97922    2056.0452    1711.9886   -327.50812    279.28211   -285.15423    290.31998 
103860000   1.0386e+08     293.9351    101167.02    1301.7119     0.867463   -1151.9069    2132.8345    409.69848      1302.97    2192.4672   -664.21112    9.2996594     -267.641    293.93866 
103870000   1.0387e+08    295.46521    101167.02    678.94926     0.867463   -1144.6922    2157.1484    881.84367    807.58244    347.42167    320.14385    402.87988    221.17368    295.46073 
103880000   1.0388e+08    289.49268    101167.02    632.18691     0.867463   -1063.6765    2171.4207    537.03365    764.74246    594.78462   -300.57489    -347.6154   -200.11041    289.49798 
103890000   1.0389e+08    293.70666    101167.02    1622.4973     0.867463   -1153.3905    2128.7982    1500.1589    2175.3454    1191.9875   -348.91343   -26.148528    136.57651    293.70656 
103900000    1.039e+08    295.33718    101167.02    803.18985     0.867463    -1118.568    2181.8418     272.9157    891.39419    1245.2597   -376.74399    220.08754   -312.82226    295.34925 
103910000   1.0391e+08    293.29971    101167.02    849.85228     0.867463   -1139.8105    2137.8304    530.14828    1244.9833    774.42528    780.41548    559.10855    754.11711    293.29031 
103920000   1.0392e+08    295.98757    101167.02    1213.7455     0.867463   -1136.3023    2171.3756    117.19855    1785.0204    1739.0175   -304.41505   -396.09977   -250.97533    295.99642 
103930000   1.0393e+08    291.22115    101167.02    871.37307     0.867463   -1081.6327    2172.7802    1123.3472    750.99519    739.77684   -69.720271    48.364533   -202.32622    291.22443 
103940000   1.0394e+08    291.09349    101167.02    1035.0981     0.867463   -1170.7042    2082.2822    708.03338    898.84039    1498.4207   -913.83522   -604.95157   -871.31641    291.08558 
103950000   1.0395e+08    285.18959    101167.02    1421.6894     0.867463   -1161.0399      2025.97     800.4394    1309.0665    2155.5624   -760.01225   -333.06875   -520.67865    285.20989 
103960000   1.0396e+08    289.93118    101167.02    1654.2789     0.867463   -1181.4236    2058.5737    1601.3852    809.22211    2552.2294   -458.72337    -560.0522    455.16505    289.95162 
103970000   1.0397e+08     283.1111    101167.02     1060.842     0.867463   -1189.7793    1974.0034    839.56019    1032.2758    1310.6901   -49.158314    528.54843    662.50911    283.13422 
103980000   1.0398e+08     291.5886    101167.02    1800.1309     0.867463   -1133.5959    2124.9233    3123.8167     1407.715    868.86091      47.7062   -423.71438    10.392647    291.59781 
103990000   1.0399e+08    286.13797    101167.02    832.50514     0.867463    -1028.687    2168.9211    936.70024    838.99652    721.81867    503.46204   -97.742682   -155.90879    286.14107 
104000000     1.04e+08     293.9787    101167.02     1227.617     0.867463        -1166    2119.2286    1402.6059    1009.5408    1270.7043    66.695854   -138.46821   -246.14848    293.98106 
104010000   1.0401e+08    294.97261    101167.02    228.23228     0.867463   -1157.3559    2138.9797    376.68726    45.008112    263.00147   -501.35143    264.07799   -134.49425    294.98557 
104020000   1.0402e+08    290.28109    101167.02    1069.2967     0.867463   -1073.7217     2170.186    510.68547    1901.1268    796.07766    1.6155457   -256.30856      388.911    290.27911 
104030000   1.0403e+08    292.26405    101167.02     1569.252     0.867463   -1148.2809    2117.7865    1294.7963     1071.223    2341.7368   -145.61246    436.67825    171.96366    292.26637 
104040000   1.0404e+08    290.88114    101167.02    481.22239     0.867463   -1106.3186    2144.2947    72.787199    506.04712    864.83286    -305.7877   -629.55409   -240.68415    290.89397 
104050000   1.0405e+08    285.44915    101167.02    628.63552     0.867463   -1100.5527    2089.3578   -100.65232    917.32126    1069.2376    240.29758   -527.08491   -1357.5089    285.45051 
104060000   1.0406e+08    296.45851    101167.02    199.88565     0.867463   -1104.5373    2208.4035   -95.782586    113.69881    581.74072   -298.41259    400.77161   -57.651507    296.45794 
104070000   1.0407e+08    294.78519    101167.02    837.89627     0.867463   -1096.5352     2197.706    494.06731     813.1269    1206.4946   -571.45491    303.79738    149.39807    294.77893 
104080000   1.0408e+08    290.74496    101167.02    1139.9013     0.867463   -1076.9788    2172.1127    944.95413    1129.7547    1344.9952   -307.43527   -135.03042    146.63923    290.77521 
104090000   1.0409e+08    290.67379    101167.02    879.95325     0.867463   -1144.2952     2104.001    1194.4764    964.37926    481.00414   -466.78034    -411.8799     707.2396    290.67804 
104100000    1.041e+08    292.49679    101167.02    1170.0199     0.867463   -1118.0418    2150.6265    688.56173    1785.5465    1035.9515   -396.12295   -246.90811   -492.38355    292.48786 
104110000   1.0411e+08    293.71356    101167.02     464.3404     0.867463   -1015.2207     2267.045    221.65838    134.85805    1036.5048   -498.69659   -424.04398   -348.74762    293.72621 
104120000   1.0412e+08    294.61163    101167.02    2324.3412     0.867463   -1076.3728     2215.929    1695.1789    2508.5694    2769.2752   -510.01235    110.33385    480.57773    294.62304 
104130000   1.0413e+08    293.98244    101167.02    1369.0157     0.867463   -1109.8566    2175.4138    394.29472    1370.3222    2342.4302   -383.11355   -234.68525    863.93414    294.00515 
104140000   1.0414e+08    297.14361    101167.02    905.23989     0.867463   -1120.1622    2200.4345    401.30035    1103.0033     1211.416   -443.88309   -36.214362    905.79642    297.12488 
104150000   1.0415e+08    296.09092    101167.02    1274.9075     0.867463   -1058.4166    2250.4163    1235.8501    641.29904    1947.5735   -600.44694   -278.54683   -636.29484    296.08549 
104160000   1.0416e+08    296.77084    101167.02    946.59121     0.867463   -1159.5512    2156.8798    401.91225    1584.3576    853.50379   -801.71195    505.16433   -1.5346542    296.77918 
104170000   1.0417e+08    294.76343    101167.02    1951.9435     0.867463   -1132.0302    2161.9679    2456.0732    2065.1993     1334.558   -522.16828    174.18339   0.54549579    294.74988 
104180000   1.0418e+08    293.15018    101167.02    727.35267     0.867463   -1155.4485    2120.5214    242.78418     937.3969    1001.8769    321.28667     305.3781    86.521088    293.15846 
104190000   1.0419e+08     291.0145    101167.02    584.45084     0.867463   -1099.9623    2152.1412    122.01452    1553.9968    77.341225   -238.57349   -401.47505    -32.77651    291.02835 
104200000    1.042e+08    291.10957    101167.02     1140.978     0.867463   -1063.2511    2189.9149     954.5701    521.58144    1946.7824   -106.47869    129.74678    529.91664    291.10625 
104210000   1.0421e+08    299.20023    101167.02     2025.008     0.867463   -1114.7039    2228.8757    1026.0214    2289.6858    2759.3166    700.98617    546.05594    395.21439    299.19256 
104220000   1.0422e+08    295.40445    101167.02     867.6699     0.867463   -1029.5475    2271.6141    1098.1986    1053.4771    451.33401   -1021.9957    28.495523    -174.7892    295.38376 
104230000   1.0423e+08    296.66508    101167.02    1099.5683     0.867463   -1005.1559    2310.0932    964.76615    841.46906    1492.4697    551.69287    62.662192   -540.21864    296.67849 
104240000   1.0424e+08    289.07181    101167.02    1604.7499     0.867463   -1159.4186    2070.9753    2446.9933     1314.192    1053.0644   -849.46328   -578.48244   -509.06543    289.09242 
104250000   1.0425e+08     294.8001    101167.02    518.68648     0.867463   -1150.6791    2143.7288    250.17003    1459.4497   -153.56029    153.86998   -242.58091    396.66433    294.81664 
104260000   1.0426e+08    296.00607    101167.02    2274.3197     0.867463    -1095.631    2212.2537    1992.6631    2831.5358      1998.76   -103.91253    92.999817   -121.01691    296.00152 
104270000   1.0427e+08    294.96317    101167.02    975.31431     0.867463   -1056.0761    2240.1541    2226.5577    716.53764   -17.152413   -832.97614    380.59086   -85.465377    294.95464 
104280000   1.0428e+08    299.18203    101167.02     1102.157     0.867463   -1108.3347    2235.0415    70.638547    1424.3501    1811.4825   -434.73587    -196.0368   -667.67842    299.19118 
104290000   1.0429e+08    299.64484    101167.02    1348.4696     0.867463   -1149.6749    2198.8732      1073.88    1186.1261    1785.4029   -1077.1345    5.2357325    237.92416    299.66264 
104300000    1.043e+08     293.1707    101167.02    1025.2993     0.867463   -1162.3314    2113.8678    781.52513    1158.4507     1135.922     507.5447    192.74617    162.61004    293.20121 
104310000   1.0431e+08    290.04424    101167.02    881.37828     0.867463   -1119.2837    2121.9771    1180.2074    607.64688    856.28052   -467.09048    157.74383    963.16135    290.03853 
104320000   1.0432e+08    296.08554    101167.02    1182.2761     0.867463    -1000.461    2308.3118    2014.1073    1241.8945    290.82641    -122.5658   -301.09597   -317.03353    296.10302 
104330000   1.0433e+08    294.05943    101167.02    1666.8494     0.867463   -1133.4977    2152.6331    1594.0679    1683.0087    1723.4715    141.34454   -751.72172   -759.85141    294.07421 
104340000   1.0434e+08    289.65245    101167.02    1200.2278     0.867463   -1127.7276    2109.1551    1384.1021    1535.8634    680.71782    -546.7135    566.67297   -450.30143    289.64856 
104350000   1.0435e+08     290.6016    101167.02     847.4931     0.867463   -1059.5563    2187.9332    572.26382    770.03477    1200.1807    -263.4105    -492.3319    54.565822    290.61589 
104360000   1.0436e+08    282.94081    101167.02    401.67014     0.867463   -1092.3715    2069.5082    169.58684    463.35514    572.06844   -57.335212     -103.533   -15.295054    282.94005 
104370000   1.0437e+08     299.4815    101167.02    1499.9114     0.867463   -1129.4499    2217.2729    1081.0847    1857.6457    1561.0038   -427.40792    314.12201   -234.48167    299.49917 
104380000   1.0438e+08    295.09242    101167.02    1399.7711     0.867463    -1056.388    2241.2866    874.53691    1453.3855    1871.3908    319.03279    128.09999   -563.17327     295.0861 
104390000   1.0439e+08    295.40042    101167.02      1636.14     0.867463   -1134.5822    2166.5343    1462.8598    1406.0215    2039.5388   -222.47849   -515.11479    630.41695    295.40786 
104400000    1.044e+08    288.78344    101167.02   -212.47604     0.867463   -1124.2282    2102.9432   -261.84011    379.36124   -754.94924   -650.67353   -153.73759   -209.41019    288.78843 
104410000   1.0441e+08    290.01836    101167.02    1440.5236     0.867463   -1149.2687    2091.7031    1772.8571     1812.757    735.95659   -180.53077   -544.99739    477.84198    290.02012 
104420000   1.0442e+08    302.04379    101167.02    679.37108     0.867463   -1121.0997    2254.2569    677.54109    80.812101      1279.76    -1135.509     180.4639   -287.72383    302.04146 
104430000   1.0443e+08    290.48171    101167.02    1181.0018     0.867463   -1128.3709    2117.7787    1711.4836    1231.1942    600.32761   -263.30418    18.895309    12.456383    290.48173 
104440000   1.0444e+08    299.02274    101167.02    1703.5978     0.867463   -1098.9738    2242.6224    1732.6673    1440.9551     1937.171   -315.99564   -449.91988   -326.24093    299.04486 
104450000   1.0445e+08    296.00724    101167.02    1005.3157     0.867463   -1094.8921    2213.0056    356.03179    861.91007    1798.0053    692.77841   -166.57922    -226.0855    295.99202 
104460000   1.0446e+08    291.03673    101167.02    416.14669     0.867463   -1150.1735    2102.1785    404.66399    1163.1678   -319.39173   -43.317752   -17.688694    7.3763938    291.03415 
104470000   1.0447e+08    296.65243    101167.02    858.05418     0.867463   -1119.1311    2195.9768    512.28236     1088.664    973.21615    -106.9937   -292.88762     365.9359    296.65714 
104480000   1.0448e+08    293.81004    101167.02    867.93081     0.867463   -1142.7412    2140.6027    879.63878    859.43089    864.72275    49.797829    419.61327    187.52145    293.81205 
104490000   1.0449e+08    294.41704    101167.02    1187.7419     0.867463   -1079.6717    2210.4555    1506.0868    1574.7505    482.38831   -392.99985    216.23781    -401.0878    294.42604 
104500000    1.045e+08    292.66863    101167.02     495.9844     0.867463   -1130.4643    2140.1242   -61.561092    999.04691     550.4674   -355.76008     699.0328   -552.08647    292.67126 
104510000   1.0451e+08    296.16385    101167.02    588.84757     0.867463    -1150.332     2159.316   -102.94268    790.56297    1078.9224   -468.73053    340.69478   -64.472841    296.15722 
104520000   1.0452e+08    283.32542    101167.02    1140.8098     0.867463   -1155.2643    2010.9134    1711.8355    821.29658    889.29731    59.480615    630.54922   -7.1873122    283.33986 
104530000   1.0453e+08    294.42759    101167.02    242.74392     0.867463   -1166.7774    2123.4676   -268.31648    543.04852    453.49972   -125.42239    -97.01897    343.17225    294.42402 
104540000   1.0454e+08    288.81123    101167.02     1084.898     0.867463   -1188.3025    2039.1794    646.98458    1853.0032    754.70625   -732.08177    687.71075    381.41234    288.81432 
104550000   1.0455e+08    283.74776    101167.02    860.33631     0.867463    -1176.988    1993.9093    208.94924    1022.6907     1349.369   -781.90265   -754.43802   -160.46205    283.76205 
104560000   1.0456e+08    295.19538    101167.02     1404.386     0.867463   -1174.1568    2124.6684    1059.7282    2093.8597    1059.5701    -95.80512    10.171347    13.490496    295.21076 
104570000   1.0457e+08    300.56091    101167.02    653.90721     0.867463   -1164.9666    2193.8186    642.30671    1235.7069    83.708004    68.351196    200.93044    199.11302    300.57382 
104580000   1.0458e+08    291.08197    101167.02    299.38297     0.867463   -1114.2083    2138.6493    729.53732   -581.01443    749.62601   -677.72641   -359.23559   -140.24028    291.08596 
104590000   1.0459e+08    295.85613    101167.02    888.87875     0.867463   -1108.2809    2197.9282    452.76048    1367.4488    846.42696   -260.79389   -122.32346     345.8016    295.86983 
104600000    1.046e+08     291.9645    101167.02    855.47788     0.867463   -1065.8043    2196.9155     181.1175    1330.7283    1054.5878   -281.68087    101.45075    286.31232    291.97067 
104610000   1.0461e+08    287.32943    101167.02    509.25275     0.867463    -1188.447    2022.4757   -121.75345     1126.645    522.86672   -665.38558   -131.09113   -147.34793    287.32738 
104620000   1.0462e+08     286.3043    101167.02    761.94628     0.867463   -1045.6587    2153.8081    793.89959    437.28504    1054.6542    -810.2524   -613.10766   -70.261724    286.30446 
104630000   1.0463e+08    298.94415    101167.02    1406.5923     0.867463   -1117.7791    2222.9389    593.39264     2371.974    1254.4101    52.834467    225.02481   -681.65265     298.9411 
104640000   1.0464e+08    305.69673    101167.02    1292.7538     0.867463   -1134.2332    2281.9451    1028.6504    1227.5628    1622.0483   -880.63997    87.200413    166.00493    305.70435 
104650000   1.0465e+08    292.38384    101167.02    457.37276     0.867463   -1071.3267    2196.0794   -70.822391     817.2949    625.64578   -327.64023   -445.23042    417.57479    292.38206 
104660000   1.0466e+08    295.06973    101167.02    1138.2925     0.867463   -1097.9676    2199.4534    773.98393    1582.4585     1058.435   -999.00203     27.78521    1144.3538    295.08148 
104670000   1.0467e+08    297.09432    101167.02    897.02467     0.867463   -1064.5335    2255.5124    970.97869    1753.8791    -33.78382   -608.01037    -507.8887     -787.186    297.09772 
104680000   1.0468e+08    300.10341    101167.02    1287.5355     0.867463   -1101.0787     2252.594    825.61535    1135.9481    1901.0429    329.52792    166.42598   -521.11206    300.09632 
104690000   1.0469e+08    289.26609    101167.02    1328.0765     0.867463   -1092.0107    2140.5544    712.85672     1765.138    1506.2349   -329.98473     120.8365   -115.64124    289.27364 
104700000    1.047e+08    299.19099    101167.02    1661.5395     0.867463   -1129.6725    2213.8038    1998.2272    918.63468    2067.7568   -1012.7988    162.71774     655.9119    299.20302 
104710000   1.0471e+08    298.46152    101167.02    1179.6211     0.867463   -1051.7302    2283.5942    1168.5235    1414.0228    956.31685    277.53086    301.26655   -166.78731    298.47677 
104720000   1.0472e+08    286.06819    101167.02    327.12678     0.867463    -1118.854    2077.9743    290.05664    134.39968    556.92401   -124.70936    530.90728   -140.34483    286.07553 
104730000   1.0473e+08    293.15614    101167.02    1806.1951     0.867463   -1051.7815     2224.255    1181.9097     1883.606    2353.0696   -46.588887   -59.866199    587.34866    293.16774 
104740000   1.0474e+08    294.76865    101167.02    1585.3629     0.867463   -1127.3316    2166.7248      1410.82    1361.1496    1984.1192   -400.27288   -246.36587   -297.14207    294.77767 
104750000   1.0475e+08    286.98241    101167.02    564.19996     0.867463   -1062.1859    2144.8589    459.17924    668.97912    564.44151    88.126117    47.138487     277.9832    286.98972 
104760000   1.0476e+08    294.31154    101167.02    828.78684     0.867463   -1152.1693    2136.7789    819.80921    742.88009     923.6712   -512.98405    -260.0497    9.9843469    294.32997 
104770000   1.0477e+08    290.85082    101167.02    915.12953     0.867463    -1057.044    2193.2305    473.72783    1213.1934    1058.4674   -752.38892    111.23445    549.91767    290.84111 
104780000   1.0478e+08    297.16558    101167.02    1495.4376     0.867463   -1129.7574    2191.0848     2503.483    1097.1686    885.66113    61.900021    145.70547   -307.72283    297.18294 
104790000   1.0479e+08    293.67445    101167.02    811.59632     0.867463   -1189.0293    2092.7993    1082.7051    376.21644    975.86747   -401.94589    75.376615    528.24885    293.67987 
104800000    1.048e+08    292.02929    101167.02    1038.3524     0.867463   -1119.3993    2144.0447    647.94734    749.24655    1717.8633   -569.35541     95.79056    43.335916    292.04788 
104810000   1.0481e+08    289.63777    101167.02    572.83214     0.867463   -1179.8361    2056.8824    261.23215    1067.7718    389.49248   -1178.4411    135.78636   -300.49088    289.64835 
104820000   1.0482e+08    290.35227    101167.02    1134.5198     0.867463   -1073.7219    2170.9812    1297.6564    1527.5053    578.39759   -1109.2067   -187.30651    457.37396    290.36145 
104830000   1.0483e+08    289.85001    101167.02    1427.2033     0.867463   -1034.4037    2204.6867    1730.0379    1140.5687    1411.0034   -198.43291   -20.738171   -238.81909    289.85622 
104840000   1.0484e+08    291.45317    101167.02    299.80594     0.867463    -1204.392    2052.6138   -727.83051    1582.2751    44.973265   -131.23794   -88.765055    262.69807    291.45623 
104850000   1.0485e+08    294.42563    101167.02    853.89463     0.867463   -1048.8941     2241.329    1257.6617    1446.3148   -142.29263    239.03491   -84.596064    -246.9131    294.44547 
104860000   1.0486e+08    291.89421    101167.02    1243.4377     0.867463   -1019.7337    2242.2007    663.51247    1518.3145    1548.4861    441.37625    38.690902    103.27176    291.90035 
104870000   1.0487e+08    302.03405    101167.02    407.18968     0.867463   -1054.9717     2320.276   -125.06748    795.76825    550.86829   -293.71037    617.83741    306.45754    302.04274 
104880000   1.0488e+08    297.39165    101167.02    892.52818     0.867463     -1040.89    2282.4786    310.00453    825.44216    1542.1379    93.747082   -423.74339    231.37899    297.40928 
104890000   1.0489e+08     293.7398    101167.02    1242.9997     0.867463    -1093.755     2188.804    1408.2082    1608.0574    712.73344   -96.792208   -281.20373   -81.138285    293.71864 
104900000    1.049e+08    290.15144    101167.02    1112.7297     0.867463   -1061.0424    2181.4165    1417.6428    1528.5602    391.98607   -543.18509   -108.24879   -280.68768    290.14973 
104910000   1.0491e+08    291.72128    101167.02       263.75     0.867463   -1149.6037    2110.3982   -276.28942    10.681426     1056.858   -577.83988   -199.27849   -193.00371    291.73205 
104920000   1.0492e+08    288.18336    101167.02    2156.1792     0.867463   -1052.4614    2168.0041    2443.2826    2056.1241    1969.1309   -59.736678    39.787689    556.06494     288.2047 
104930000   1.0493e+08    297.42815    101167.02    1235.7636     0.867463   -1086.7901    2236.9865    1323.8955    1603.3862    780.00907   -328.41473    109.15882   -939.52905    297.44312 
104940000   1.0494e+08    293.81739    101167.02    885.49613     0.867463   -1073.4816    2209.9445   -81.979897    1199.7768    1538.6914    -577.7205    580.66007    315.79994    293.83261 
104950000   1.0495e+08    290.89435    101167.02    679.28276     0.867463   -1079.1219     2171.639    616.70686    860.83288    560.30853   -1118.8355    136.59124   -268.98925    290.90125 
104960000   1.0496e+08     289.4351    101167.02    703.95573     0.867463   -1122.9052    2111.5484    597.14958    1027.6385    487.07913    155.93231   -380.16049    866.72968    289.42778 
104970000   1.0497e+08    286.93597    101167.02    1085.5903     0.867463   -1066.3819    2140.1439     903.1869    1685.0991    668.48507   -740.91006   -328.41305   -66.753367      286.948 
104980000   1.0498e+08    296.71747    101167.02    921.99862     0.867463   -1179.1728    2136.6619    526.29747    1279.2511    960.44726   -707.28721    341.14426     447.8456    296.71608 
104990000   1.0499e+08      290.184    101167.02    2038.9208     0.867463   -1077.8778    2164.9448    1663.0566    2538.1335    1915.5723   -271.83402    30.846618   -110.16679    290.19842 
105000000     1.05e+08    286.61798    101167.02      816.916     0.867463   -1146.2805    2056.6918    299.69093    737.17887    1413.8782   -472.07584   -38.923429   -347.93748    286.61023 
105010000   1.0501e+08    295.09264    101167.02    1833.2717     0.867463   -1076.5926    2221.0844     1397.889    1556.7048    2545.2214   -618.14848    802.53858    850.61653    295.10534 
105020000   1.0502e+08    292.71469    101167.02    1393.9096     0.867463   -1109.8013     2161.302    816.93088    2100.3981    1264.3996   -410.20093    285.48052   -892.07602    292.70431 
105030000   1.0503e+08    290.03192    101167.02    677.90078     0.867463   -1133.7998    2107.3235    551.76155    769.53001    712.41076   -310.31182   -269.09762     81.42191    290.02162 
105040000   1.0504e+08    293.09786    101167.02    543.19304     0.867463   -1038.8141    2236.5711   -796.67923    1252.1739    1174.0845    -528.7077   -751.89668   -281.57008    293.09797 
105050000   1.0505e+08     295.8431    101167.02    1919.2008     0.867463   -1044.9427    2261.1207    2541.9872    1680.1073    1535.5077     323.4465      20.0386   -536.86459    295.86352 
105060000   1.0506e+08    296.17217    101167.02    2237.4459     0.867463   -1021.6037    2288.1372    2437.8339     2767.202    1507.3018   -155.27242   -79.605645    414.91347    296.16932 
105070000   1.0507e+08    290.19804    101167.02    1323.7042     0.867463   -1090.8724    2152.1072    1159.6593    1046.0309    1765.4225   -284.29395   -509.21519    465.27782    290.21117 
105080000   1.0508e+08    293.57741    101167.02    1125.5709     0.867463    -1042.178    2238.5663      1393.67    467.09042    1515.9522   -319.95045    184.95849   -121.87535    293.59325 
105090000   1.0509e+08    287.31019    101167.02    1094.4117     0.867463   -1062.7402    2147.9675     1127.833     936.5306    1218.8714   -393.92559   -1183.9895    632.05361    287.30457 
[...]
150180000   1.5018e+08    291.25469    101167.02    1468.7213     0.867463   -1043.8461    2210.9416    1361.2854    1687.3963    1357.4821    208.48536    100.48161    495.78379    291.24015 
150190000   1.5019e+08    298.24994    101167.02     729.0436     0.867463   -1093.6251     2239.335    629.62642    1751.2617   -193.75731    315.90187    -163.1316    594.30382    298.25361 
150200000    1.502e+08    294.17076    101167.02    1169.5735     0.867463   -946.74527    2340.6297    1143.6325    1003.5253    1361.5626   -722.29129    121.89462   -26.109208     294.1616 
150210000   1.5021e+08    297.43724    101167.02    899.40432     0.867463   -1089.0284    2234.8496    573.72603    630.23481    1494.2521   -352.11478    317.15509    279.67003    297.43027 
150220000   1.5022e+08    294.19118    101167.02    908.18938     0.867463   -1051.2106    2236.3926    288.93436    1101.8008     1333.833     31.88815   -186.65619     878.6678    294.20009 
150230000   1.5023e+08    296.18505    101167.02    1624.6831     0.867463   -1058.8989    2250.9859    982.98393    2486.9973    1404.0682   -251.13869    280.24387   -88.452655    296.19384 
150240000   1.5024e+08    295.53478    101167.02    1297.8475     0.867463   -978.44049    2324.1775    1121.7017    1180.8955    1590.9454   -1144.0435    237.08666   -320.19771    295.52229 
150250000   1.5025e+08    301.54429    101167.02     857.6763     0.867463   -1126.1392    2243.6354    126.38599     1677.543    769.09991   -744.61272   -102.84378    129.28524    301.55708 
150260000   1.5026e+08    284.59097    101167.02    1324.4527     0.867463   -1068.4124    2111.9079    972.22573    1699.9188    1301.2137    170.22545    226.84645    -434.8157    284.61323 
150270000   1.5027e+08    294.89052    101167.02     1122.147     0.867463    -1069.535    2225.8834    1328.6995    1036.1477    1001.5938   -585.30975   -513.39786   -572.88333    294.89102 
150280000   1.5028e+08    294.89526    101167.02    1006.9292     0.867463   -1067.4661    2228.0053    1553.2859    641.56908     825.9328    188.30742    272.96323   -873.46577    294.89022 
150290000   1.5029e+08     293.5634    101167.02    1634.7322     0.867463   -1048.1024    2232.4853    1246.9917    1876.0208    1781.1841   -733.16531    117.92183     215.8951    293.54094 
150300000    1.503e+08    295.28185    101167.02    1443.5634     0.867463   -1026.1376    2273.6539    863.58856    1586.3588    1880.7429   -384.11634    152.06642   -473.75167    295.29117 
150310000   1.5031e+08    296.12467    101167.02    853.92012     0.867463   -1149.1186    2160.0914    245.39547    882.63216    1433.7327    282.60349    215.48029   -198.84634    296.13567 
150320000   1.5032e+08    296.07539    101167.02    1229.5568     0.867463   -1122.1584    2186.5009     891.3894    1517.1349    1280.1459      -199.59    229.32948     -45.6497    296.06441 
150330000   1.5033e+08    289.97484    101167.02    760.78545     0.867463    -1080.175    2160.3102    914.38356    1434.8124   -66.839593   -523.62108   -646.36517    325.57335    289.99117 
150340000   1.5034e+08     296.3057    101167.02    963.42674     0.867463   -1006.3498    2304.8833    1791.1213    960.66502    138.49392   -120.34125   -535.16534    258.64394    296.29528 
150350000   1.5035e+08    295.05116    101167.02    600.94503     0.867463   -1059.5099    2237.7036   -71.250682    900.31108     973.7747    85.717588    125.36417   -175.76874    295.06751 
150360000   1.5036e+08    294.20779    101167.02    552.86796     0.867463   -1104.5606    2183.2282      103.348    649.21878     906.0371    366.56494    134.85764    671.87057    294.21423 
150370000   1.5037e+08    289.92405    101167.02    565.08464     0.867463   -1091.1572    2148.7606    949.97998    486.98439    258.28956   -1207.6175    486.70555   -111.43224    289.93487 
150380000   1.5038e+08    292.13468    101167.02     1613.509     0.867463   -1092.5101    2172.1115    2270.2091    1086.9585    1483.3594    -277.5807   -114.25334    394.74009    292.16183 
150390000   1.5039e+08    298.53878    101167.02    1574.3107     0.867463   -1163.8836    2172.3042    565.07654    1558.6446    2599.2108    -230.1194    681.15573    202.83125    298.53579 
150400000    1.504e+08    304.41186    101167.02      612.717     0.867463   -1066.0331    2335.7868   -248.54585    1098.4489    988.24794   -1137.3876    39.731401    277.10016    304.42567 
150410000   1.5041e+08    294.62826    101167.02    964.92267     0.867463   -974.66049    2317.8271    1134.5554    529.02467    1231.1879   -1001.4596    164.29245    622.97261    294.62806 
150420000   1.5042e+08    289.65852    101167.02    739.72639     0.867463   -1001.2225     2235.728    65.311051    1317.4443    836.42382   -741.43922    260.92443   -891.44285    289.67158 
150430000   1.5043e+08    292.02426    101167.02    630.11871     0.867463   -1106.2614    2157.1264   -287.33183    1537.0563    640.63164   -648.08667    290.33996   -131.39997    292.03725 
150440000   1.5044e+08    297.62929    101167.02    425.82099     0.867463   -1070.7341    2255.2901   -717.06736    1167.7306     826.7997   -41.129126    -358.0247   -180.71733    297.64167 
150450000   1.5045e+08    299.92293    101167.02    1213.6754     0.867463   -1104.4103    2247.2455    1311.5964    1314.7606    1014.6692   -287.33655    296.59507    -133.3188    299.91748 
150460000   1.5046e+08    299.79592    101167.02   -10.485199     0.867463   -1100.0345    2250.2019   -208.30116    90.811386    86.034174   -773.67972    211.49801    102.82065     299.8038 
150470000   1.5047e+08    292.74133    101167.02    915.48831     0.867463    -1147.346    2124.0551    930.94956    991.22789    824.28747    121.76069    123.33723   -490.06874    292.75073 
150480000   1.5048e+08     293.0842    101167.02    1554.2159     0.867463   -1098.5004    2176.7322    1288.6269    1515.5407    1858.4799   -1300.4133    826.99511    617.81714    293.08655 
150490000   1.5049e+08    286.91802    101167.02    809.79617     0.867463   -1044.0747    2162.2505    1260.9272    724.18769    444.27361    142.11393     186.7591    249.48406    286.93325 
150500000    1.505e+08     291.3634    101167.02   -6.4144744     0.867463   -1068.6243    2187.3783    -367.3404    772.90855   -424.81157   -217.83221   -1169.1942   -285.24537    291.38713 
150510000   1.5051e+08    300.21986    101167.02    1638.4697     0.867463   -995.65539    2359.3187    1935.3296    1159.4839    1820.5955    15.234557   0.73476841   -442.81979    300.22794 
150520000   1.5052e+08    290.50821    101167.02    859.89094     0.867463   -1161.2169    2085.2289    888.06172    1046.3153    645.29577   -850.48711    121.16569   -812.35527    290.50942 
150530000   1.5053e+08    303.97669    101167.02    996.46115     0.867463   -1087.1288     2309.828    1446.9867    1001.4463    540.95041   -339.89146    84.170551    817.98013    303.98134 
150540000   1.5054e+08    288.64139    101167.02    822.64377     0.867463   -1081.4824    2144.1016     517.9543    983.79725    966.17978   -158.33124   -114.75324   -38.894579    288.64162 
150550000   1.5055e+08    293.55286    101167.02    1471.7134     0.867463   -1039.6161    2240.8538    1312.2259    2127.3354    975.57894   -503.28188    551.57734   -383.34626    293.55544 
150560000   1.5056e+08    291.41265    101167.02    1266.5573     0.867463   -1063.7069     2192.846    336.51129    841.08835    2622.0722   -369.17982    345.89445    231.25189     291.4101 
150570000   1.5057e+08    297.44826    101167.02    1141.0738     0.867463   -1097.5403     2226.461    757.89157    1726.2777    939.05224   -266.41789   -865.91825   -166.64705     297.4584 
150580000   1.5058e+08    295.26789    101167.02    1017.6054     0.867463   -1103.7651    2195.8703     388.8902    949.86969    1714.0564   -35.399108   -547.45165    663.33366    295.28314 
150590000   1.5059e+08    291.39324    101167.02    531.74581     0.867463    -991.9433    2264.3927     266.2509    373.58945    955.39709   -336.35822    -87.42058    194.98609    291.39403 
150600000    1.506e+08    293.40147    101167.02    2400.3475     0.867463    -1003.897    2274.8811    2912.6142     1904.462    2383.9664   -342.68741    161.15126    371.00796    293.39719 
150610000   1.5061e+08    288.10248    101167.02    870.98236     0.867463   -1021.9349    2197.6267   -91.956801    1471.6516    1233.2523   -582.32839    358.50618   -133.05278    288.10305 
150620000   1.5062e+08    294.14399    101167.02    392.92352     0.867463   -1005.2401    2281.8357   -772.43911    424.33535    1526.8743    350.49058     340.4126   -482.47687    294.13132 
150630000   1.5063e+08    292.26938    101167.02    1397.2624     0.867463   -1054.1845    2211.9424    761.74122       2449.4    980.64611   -7.2325044   -80.255668    365.29528     292.2792 
150640000   1.5064e+08    290.22373    101167.02    1788.9417     0.867463   -1052.3248    2190.9419    2167.5963    1257.7631    1941.4657   -328.42428   -351.25672   -222.40463    290.22989 
150650000   1.5065e+08    301.91477    101167.02    1005.8979     0.867463   -1028.8024    2345.1123    315.07427    1220.1246    1482.4948   -194.41098    184.48218   -245.65216    301.91732 
150660000   1.5066e+08    291.24784    101167.02    1473.7202     0.867463    -1141.759    2112.9523    1865.0035    1313.5037    1242.6533   -463.36674   -434.62151   -75.912009    291.24569 
150670000   1.5067e+08    299.03626    101167.02    420.27312     0.867463   -1037.9668    2303.7804    915.48482    308.18171     37.15283    94.878997    442.60651    370.41097    299.04243 
150680000   1.5068e+08    294.61072    101167.02    1208.3116     0.867463   -1114.3271    2177.9645    634.42945    1051.9487    1938.5565   -754.67007    354.51105   -154.04934    294.61142 
150690000   1.5069e+08     293.7056    101167.02    927.93289     0.867463   -1077.7498    2204.4271    531.56321    1136.0007    1116.2348   -622.27209   -18.622848   -444.57164    293.70879 
150700000    1.507e+08    291.28719    101167.02    909.67187     0.867463    -1076.233    2178.9179    613.74782    1594.3705    520.89733    -288.4501     791.0409    75.306819    291.29222 
150710000   1.5071e+08    296.21928    101167.02    461.08186     0.867463   -1084.0562    2226.2111    222.08458    190.58997    970.57103   -543.37166    473.66429    77.247367    296.21516 
150720000   1.5072e+08    295.66099    101167.02    1453.4155     0.867463   -1082.6107    2221.4177    1766.2811    1102.1493    1491.8161    225.82516   -176.06315   -890.98084    295.66087 
150730000   1.5073e+08    295.63541    101167.02    372.16381     0.867463   -1124.9927    2178.7498   -222.96456    277.40881    1062.0472    69.842743    -148.2429   -99.522713    295.63824 
150740000   1.5074e+08     293.7411    101167.02    1452.0218     0.867463   -1080.8673    2201.7061    1724.9751    1939.9644    691.12599   -84.171587   -189.27608   -76.549043    293.74951 
150750000   1.5075e+08    293.44401    101167.02    2175.2531     0.867463   -1105.8602    2173.3933    1979.0845    2823.1386    1723.5362   -438.08894    181.51337    47.918561    293.43472 
150760000   1.5076e+08     291.4969    101167.02    514.53243     0.867463   -1092.3263    2165.1681   -118.18892    1241.4554    420.33082   -109.40625    90.624265   -152.08897     291.4951 
150770000   1.5077e+08    291.08153    101167.02    1063.7746     0.867463   -1070.2519    2182.6008    1571.8306    477.90814    1141.5851   -422.88964    310.60795     355.0235    291.08555 
150780000   1.5078e+08    293.06646    101167.02    1160.0085     0.867463   -1005.3728    2269.6615    1225.0168    1632.0276    622.98103   -299.21009    274.26441    480.03176    293.05579 
150790000   1.5079e+08    292.38683    101167.02    673.64665     0.867463    -1090.784    2176.6554    133.79836    274.26347    1612.8781   -1012.0021   -523.37698   -693.68217    292.40299 
150800000    1.508e+08    292.86024    101167.02    505.03736     0.867463   -1064.2749    2208.4549    550.02328    1087.2845   -122.19565    30.806365    181.78065   -1097.1302    292.86096 
150810000   1.5081e+08    296.66999    101167.02    1521.5036     0.867463   -1084.5625    2230.7415    2269.4858    1576.3509    718.67401    296.37569   -205.36844   -137.15032    296.66704 
150820000   1.5082e+08    291.18153    101167.02    39.634506     0.867463   -1021.3694    2232.6007   -400.71559    548.56714   -28.948032   -535.00026   -503.26747   -298.92082    291.19477 
150830000   1.5083e+08    294.96964    101167.02    623.21141     0.867463   -1055.7474    2240.5552   -685.18045    1064.5732    1490.2414    318.28759    387.98175   -220.92576    294.97111 
150840000   1.5084e+08    287.14193    101167.02    1615.4159     0.867463   -1044.1719    2164.6555    1105.0703    1478.7043    2262.4731   -469.93733     252.3862   -332.34252    287.15584 
150850000   1.5085e+08    292.24465    101167.02    906.62248     0.867463   -1092.7719    2173.0787    594.35033    1606.7537    518.76342   -385.96863   -262.58749   -426.51621    292.24852 
150860000   1.5086e+08    285.76913    101167.02     627.9955     0.867463   -1130.6458    2062.8405    329.52074    883.13521    671.33056   -32.058422    398.62893    551.40069    285.76379 
150870000   1.5087e+08    292.43924    101167.02    1232.3023     0.867463   -1087.9846    2180.0405    1762.2553    987.69796     946.9537   -197.15164   -77.907743    82.639117    292.46092 
150880000   1.5088e+08     286.4707    101167.02    645.61202     0.867463   -1111.1841    2090.1422    344.59045    469.74309    1122.5025   -474.80141    -435.2378    1084.3243    286.47111 
150890000   1.5089e+08    294.47478    101167.02    1626.9746     0.867463    -1044.371    2246.4014    2374.9922    737.05228    1768.8794    -621.0539    35.027163   -345.53616    294.46901 
150900000    1.509e+08    290.10057    101167.02    1018.5107     0.867463   -1138.4673     2103.423    1350.6754    1332.7478    372.10906   -27.435775   -24.867485   -217.38478    290.10948 
150910000   1.5091e+08    296.20282    101167.02    1068.2299     0.867463   -1089.9986    2220.0848    1995.3537    809.02864    400.30738   -1020.2222    135.69726   -282.06766    296.19296 
150920000   1.5092e+08    292.41688    101167.02     1802.752     0.867463   -1096.8332    2170.9421     2327.651    1160.1279    1920.4772    614.48668    630.44533    1081.4439    292.41591 
150930000   1.5093e+08    285.43342    101167.02    1220.8818     0.867463   -1084.4996    2105.2351    1824.1797    630.76666    1207.6991   -719.01449   -29.222359   -261.26117    285.44371 
150940000   1.5094e+08    292.19506    101167.02    1901.1653     0.867463   -1111.4946    2153.8018    2631.0565    2328.6248     743.8146    118.61524     325.7716   -20.480252    292.19001 
150950000   1.5095e+08    293.51595    101167.02    2199.3174     0.867463   -1152.7023    2127.3551    2536.3985    2222.7219    1838.8319      335.186   -191.82447    181.90688    293.53006 
150960000   1.5096e+08    296.53176    101167.02    1310.3067     0.867463   -1122.0419    2191.7173     1281.914    1552.8526    1096.1536   -784.37298    290.61794   -357.44792    296.54032 
150970000   1.5097e+08     295.6353    101167.02    570.76801     0.867463   -1129.7441    2173.9973    534.31279    133.15169    1044.8395   -427.42215   -699.52756    358.89247    295.65737 
150980000   1.5098e+08     295.1276    101167.02    1105.4879     0.867463   -1103.7879    2194.2798    1767.0512    1894.6816   -345.26907     24.98322   -294.59358   -684.95108    295.13441 
150990000   1.5099e+08    291.56825    101167.02    1325.3484     0.867463   -1091.1494    2167.1424    945.77155    1148.4872    1881.7864    35.019668   -579.29007   -257.93513    291.59265 
151000000     1.51e+08    298.38346    101167.02    1439.3752     0.867463   -1067.9456    2266.5064     1588.816    1081.6304    1647.6793   -127.22463   -334.07368    797.37608    298.39205 
Loop time of 14739.1 on 48 procs for 50000000 steps with 3750 atoms

Pair  time (%) = 5034.18 (34.1553)
Bond  time (%) = 1034.06 (7.01576)
Neigh time (%) = 2622.19 (17.7907)
Comm  time (%) = 4396.84 (29.8311)
Outpt time (%) = 0.574143 (0.00389538)
Other time (%) = 1651.25 (11.2032)

Nlocal:    78.125 ave 87 max 66 min
Histogram: 1 1 3 6 5 10 6 7 6 3
Nghost:    1312.48 ave 1344 max 1289 min
Histogram: 2 8 8 5 6 6 7 2 2 2
Neighs:    6358.98 ave 7187 max 5318 min
Histogram: 1 2 5 3 7 9 8 7 4 2

Total # of neighbors = 305231
Ave neighs/atom = 81.3949
Ave special neighs/atom = 6.26667
NeighboGenerated thermo.dat
Done!
stress
average  314.416
square average  99286.9
number of blocks  150
variance  1.69209720760953919848
pxx
average  919.88
square average  847727
number of blocks  150
variance  3.21225320712216997961
pyy
average  1211.68
square average  1.46897*10^06
number of blocks  150
variance  2.31167702473045889522
pzz
average  1124.2
square average  1.26472*10^06
number of blocks  150
variance  2.44180261282520541085
xx
average  2185.89
square average  4.77817*10^06
number of blocks  150
variance  .60502286458171699964
yy
average  2181.63
square average  4.75952*10^06
number of blocks  150
variance  .26511758397611678094
zz
average  2181.08
square average  4.75712*10^06
number of blocks  150
variance  .25863230012252272172
xx
average  -561.66
square average  317022
number of blocks  150
variance  3.22494899184467722334
yy
average  -266.976
square average  72080.5
number of blocks  150
variance  2.31562147741522441309
zz
average  -354.082
square average  126275
number of blocks  150
variance  2.45076488196372412983
rm: cannot remove `running.average.out': No such file or directory
stress
average  338.981
square average  119801
number of blocks  900
variance  2.33163786949098175013
average  323.958
square average  109414
number of blocks  1900
variance  1.53300774811788661233
average  322.933
square average  108697
number of blocks  2900
variance  1.23334106240200101095
average  321.179
square average  107446
number of blocks  3900
variance  1.04881495508025628076
average  318.71
square average  105802
number of blocks  4900
variance  .92867426903041933772
average  319.246
square average  106169
number of blocks  5900
variance  .84882685583482847174
average  320.338
square average  106861
number of blocks  6900
variance  .78431782932131814940
average  320.144
square average  106744
number of blocks  7900
variance  .73362454302359751306
average  319.726
square average  106398
number of blocks  8900
variance  .68476887956957148223
average  319.619
square average  106342
number of blocks  9900
variance  .65022877395947996053
average  317.997
square average  105329
number of blocks  10900
variance  .62125265517310509722
average  317.384
square average  104893
number of blocks  11900
variance  .59128094418641904451
average  316.726
square average  104494
number of blocks  12900
variance  .56914466792130787206
average  315.432
square average  103665
number of blocks  13900
variance  .54756842323996039834
average  314.433
square average  102998
number of blocks  14900
variance  .52647291057609963095
average  314.416
square average  102988
number of blocks  15000
variance  .52475892522185842284
average  314.416
square average  102988
number of blocks  15000
variance  .52475892522185842284
average  314.416
square average  102988
number of blocks  15000
variance  .52475892522185842284
average  314.416
square average  102988
number of blocks  15000
variance  .52475892522185842284
average  314.416
square average  102988
number of blocks  15000
variance  .52475892522185842284
pressure, stress.strain, ktensor, virial are all concatenated
averages computed will all accumulated data until now
r list builds = 5587782
Dangerous builds = 0
System init for write_restart ...

real	245m46.361s
user	0m0.042s
sys	0m0.100s
