LAMMPS (10 Feb 2015)
Read molecule SQL:
  30 atoms with 3 types
  29 bonds with 1 types
  34 angles with 1 types
  31 dihedrals with 2 types
  0 impropers with 0 types
Reading restart file ...
  restart file = 28 Jun 2014, LAMMPS = 10 Feb 2015
WARNING: Restart file used different # of processors (../read_restart.cpp:705)
  triclinic box = (112.396 112.396 112.396) to (157.604 157.604 157.604) with tilt (0 0 0)
  3 by 4 by 4 MPI processor grid
  3750 atoms
  3625 bonds
  4250 angles
  3875 dihedrals
250 atoms in group endatoms
WARNING: New thermo_style command, previous thermo_modify settings will be lost (../output.cpp:665)
Neighbor list info ...
  1 neighbor list requests
  update every 1 steps, delay 0 steps, check yes
  master list distance cutoff = 10.3
Setting up run ...
Memory usage per processor = 2.182 Mbytes
Step Time Temp Volume Press Density PotEng TotEng Pxx Pyy Pzz Pxy Pyz Pxz myT 
       0            0    294.09624    92391.171    3464.0278   0.96344716   -390.86614     2895.676     4199.343    2741.9897    3450.7508    227.13602    256.03452   -267.05637    294.09624 
    1000         1000    298.61039    92391.171    4624.4237   0.96344716   -406.81882    2930.1693    4595.2624    4366.0378    4911.9708    686.73341    3.5298751     99.53462    298.61039 
    2000         2000    293.21107    92391.171    3373.1829   0.96344716   -356.48386    2920.1666    3875.1192    2553.9404     3690.489    616.67572    594.07495   -74.525576    293.21107 
    3000         3000    293.18168    92391.171    4114.7069   0.96344716   -452.53946    2823.7825    5081.2292    3681.3496     3581.542   -769.18935    78.246983    444.65466    293.18168 
    4000         4000    294.34287    92391.171     3744.955   0.96344716   -395.92143    2893.3769    3892.5705    2573.8494    4768.4452   -198.48398    183.92496   -713.91944    294.34287 
    5000         5000    296.55654    92391.171    4158.6028   0.96344716   -354.05505    2959.9812     4871.045    3305.1043    4299.6591   -850.37067    956.56871   -191.76945    296.55654 
    6000         6000    289.34032    92391.171    5823.2494   0.96344716   -386.12689    2847.2676    7126.8117    4682.7918    5660.1446    206.84139    795.93886   -1329.5891    289.34032 
    7000         7000    299.32069    92391.171    4013.6197   0.96344716   -387.09061    2957.8351     3007.172    4176.5845    4857.1026    299.83805     1551.614    309.91615    299.32069 
    8000         8000    292.79438    92391.171    3847.0464   0.96344716   -416.70746    2855.2864    3273.4518    3652.4884    4615.1989     324.2982   -481.07245   -458.88412    292.79438 
    9000         9000    292.02995    92391.171     4170.602   0.96344716    -346.2503     2917.201    5623.8547     3205.896    3682.0554   -452.08785   -972.19144   -245.96825    292.02995 
   10000        10000    290.81673    92391.171    4745.6466   0.96344716    -342.0249    2907.8687    4489.1281    4884.0343    4863.7775    287.41105    286.82667    106.83767    290.81673 
   11000        11000    285.80112    92391.171    2384.8767   0.96344716   -371.36912    2822.4746    2673.8718     1406.763    3073.9953   -647.97323   -582.49349    565.60956    285.80112 
   12000        12000    300.33416    92391.171    2717.6519   0.96344716   -388.31856    2967.9327    3312.4609    2427.5996    2412.8951    596.58469    110.53131    599.53444    300.33416 
   13000        13000    289.49531    92391.171    3148.5064   0.96344716   -304.53366    2930.5929    2069.4254    3686.5031    3689.5906    3.5916908   -1394.1651   -311.95154    289.49531 
   14000        14000     292.9565    92391.171     3251.154   0.96344716   -357.66526    2916.1403    3612.6135    3574.8278    2566.0207   -776.60715    817.22177    -1461.925     292.9565 
   15000        15000    291.58614    92391.171    2907.2659   0.96344716   -425.01503    2833.4766    3366.7665    2310.8766    3044.1547    98.346011    312.17201    267.21223    291.58614 
   16000        16000    292.20334    92391.171     2326.409   0.96344716   -327.35605    2938.0329     2467.851    2668.9473    1842.4288   -161.63066   -1625.6751   -765.91224    292.20334 
   17000        17000      294.396    92391.171    4049.1167   0.96344716   -399.18217    2890.7099    5176.4336    3302.2661    3668.6505   -300.99842    -501.1345    57.457926      294.396 
   18000        18000    295.57237    92391.171    3328.1661   0.96344716   -415.20814    2887.8299    3295.1198    4101.9547    2587.4236   -859.81146    33.787524    833.05726    295.57237 
   19000        19000     292.6078    92391.171    4577.7465   0.96344716   -394.49323    2875.4156     4934.408    5398.5513    3400.2803    385.94071    867.36651    187.99807     292.6078 
   20000        20000     295.1352    92391.171    4328.2233   0.96344716   -382.53138    2915.6212    4148.8067    3504.4816    5331.3815    236.63748   -342.60281    874.63822     295.1352 
   21000        21000    291.77716    92391.171    4133.4583   0.96344716   -358.87187    2901.7545    4184.6842    3453.0656    4762.6251   -62.562505   -984.71825   -705.80776    291.77716 
   22000        22000    293.23346    92391.171    3489.6371   0.96344716   -400.99451    2875.9061    2359.4975    3975.2653    4134.1486    989.73262    216.88376   -250.20975    293.23346 
   23000        23000    295.10914    92391.171     3816.916   0.96344716   -352.23242     2945.629    2851.7088    3661.8932    4937.1461   -292.75354    770.88389   -140.77144    295.10914 
   24000        24000    294.24527    92391.171    4471.2134   0.96344716   -383.46178    2904.7458    4558.2309     5369.987    3485.4224   -879.31132     1297.769    303.72212    294.24527 
   25000        25000    294.94808    92391.171    4321.9691   0.96344716   -441.43537    2854.6262     3908.435    3425.8241     5631.648   -61.332937     223.7927    137.37094    294.94808 
   26000        26000    290.78558    92391.171    4520.3252   0.96344716   -328.91957    2920.6258    5437.0022    5023.1324    3100.8408   -76.710478   -144.23382   -3.4800563    290.78558 
   27000        27000    289.23195    92391.171    3787.3435   0.96344716   -456.71097    2775.4725    4185.8053    2391.4176    4784.8077    359.01683   -335.27684    128.94847    289.23195 
   28000        28000    295.42025    92391.171    3874.0209   0.96344716   -333.16586    2968.1723    4970.5999    4669.0044    1982.4584   -916.36693    -420.6272   -1082.7679    295.42025 
   29000        29000    287.79911    92391.171    3284.6181   0.96344716   -350.21891    2865.9526    2843.1805     3921.478    3089.1958   -681.44523    20.264657   -549.45494    287.79911 
   30000        30000    306.37394    92391.171    3593.3671   0.96344716   -379.15185    3044.5944    3401.6222    3466.8976    3911.5814   -754.04145     614.5089    181.81304    306.37394 
   31000        31000    287.52482    92391.171    5122.4154   0.96344716   -424.39613    2788.7101    5949.2098    4810.3741    4607.6623   -202.04786    1047.0373   -1492.6237    287.52482 
   32000        32000    293.79466    92391.171    4011.5337   0.96344716   -361.94064    2921.2314    5377.6387    4419.3244     2237.638   -631.82108   -225.83166    743.99525    293.79466 
   33000        33000     291.7548    92391.171    4330.0565   0.96344716   -396.18199    2864.1945    4486.0411    4410.1849    4093.9434    477.42496    13.756764   -278.40886     291.7548 
   34000        34000    288.97391    92391.171    2357.3795   0.96344716   -382.74846    2846.5514     2470.854    2458.2994     2142.985   -681.61235    467.69546    1057.1133    288.97391 
   35000        35000    293.65359    92391.171    2873.8093   0.96344716   -350.01407    2931.5815    2398.8237    2776.6823    3445.9218    282.47003    132.79598   -198.93533    293.65359 
   36000        36000    291.65629    92391.171    3299.6755   0.96344716   -326.13488    2933.1407    3745.3442     2784.427    3369.2552   -99.661029    293.71906   -847.29353    291.65629 
   37000        37000    292.90649    92391.171    4247.1761   0.96344716   -325.17585    2948.0708     4346.752    4293.2905    4101.4859   -60.994706   -755.86242    689.99557    292.90649 
   38000        38000    298.38746    92391.171    3838.1424   0.96344716   -345.59698    2988.8999    3310.9278    3027.2216    5176.2779   -742.24369   -233.51672    284.12309    298.38746 
   39000        39000     282.7302    92391.171    3953.8462   0.96344716   -405.57297    2753.9531    3457.2947    5420.7584    2983.4856   -312.96756    58.239554    -68.64552     282.7302 
   40000        40000    300.82196    92391.171    4291.4932   0.96344716   -252.13555    3109.5669    4115.3866     5131.706    3627.3869   -198.87358    126.65302   -786.71923    300.82196 
   41000        41000    283.91993    92391.171    4887.6141   0.96344716   -414.59345    2758.2279    4852.6459    4765.8844    5044.3121   -56.158338    143.42447   -752.61699    283.91993 
   42000        42000    294.09326    92391.171    3773.3409   0.96344716    -354.5246    2931.9843    4966.7956    3916.1217    2437.1055    930.29648    343.79473    227.77769    294.09326 
   43000        43000    290.49026    92391.171    4319.7282   0.96344716    -339.7877    2906.4575    3093.0932    5074.5048    4791.5867   -689.91282   -164.83722    944.60787    290.49026 
   44000        44000     290.9199    92391.171    4129.3361   0.96344716   -298.08289    2952.9636    5923.5423    3445.5937    3018.8722   -1246.2804    169.74285    173.54248     290.9199 
   45000        45000    290.56865    92391.171    3891.1337   0.96344716   -399.33047    2847.7907    4756.6519     3247.088    3669.6611   -352.87908   -333.61717    403.86491    290.56865 
   46000        46000    291.84772    92391.171     4533.846   0.96344716   -277.30107    2984.1137    4246.0241    4071.6172    5283.8968   -602.25115    130.64835   -276.21679    291.84772 
   47000        47000    289.41994    92391.171     4680.063   0.96344716   -395.59521     2838.689    4364.1104    4104.2133    5571.8654   -570.43694   -67.392967    583.16414    289.41994 
   48000        48000    293.22849    92391.171    3611.5088   0.96344716   -388.74407     2888.101    4159.6701    2817.9341    3856.9223   -411.38523    824.55119    -1215.134    293.22849 
   49000        49000     297.4709    92391.171    5400.2414   0.96344716   -342.02484    2982.2294    5373.4412    6112.8089     4714.474   -349.30087    585.70471   -168.29082     297.4709 
   50000        50000    287.05761    92391.171     3951.159   0.96344716   -297.32413     2910.561     4966.103    4045.1905    2842.1834   -691.55453    910.25437   -188.26655    287.05761 
   51000        51000     286.8327    92391.171    3892.8654   0.96344716   -374.30243    2831.0693    4450.1723    3005.4864    4222.9376   -2258.3195    952.27604   -163.85257     286.8327 
   52000        52000    296.21266    92391.171    4364.9271   0.96344716   -291.31057    3018.8828    4967.3735    3383.9855    4743.4222    -190.9466   -525.13646    14.755654    296.21266 
   53000        53000    285.84512    92391.171    4409.9169   0.96344716   -366.56424    2827.7712    4600.4229    3783.5188     4845.809   -667.67506    -26.48121    476.15719    285.84512 
   54000        54000    294.45299    92391.171    3731.5552   0.96344716   -364.34451    2926.1843    3442.6252    4092.5198    3659.5206   -710.83952   -816.51519   -497.14823    294.45299 
   55000        55000    292.67354    92391.171    4676.5947   0.96344716   -359.92082    2910.7227    4629.9353    4647.9072    4751.9417      162.679    712.98706    511.28694    292.67354 
   56000        56000    292.01868    92391.171    4046.0943   0.96344716   -362.18387    2901.1415    3601.6091    4388.0044    4148.6694    -1564.432    772.63919    61.216426    292.01868 
   57000        57000    296.01902    92391.171    3868.5746   0.96344716   -361.85389    2946.1755    2922.4626     3562.137    5121.1243   -462.43844    146.05825    49.745653    296.01902 
   58000        58000    294.62191    92391.171    4065.3507   0.96344716   -372.89597    2919.5206    4036.6544    4538.6475    3620.7502   -592.96527    357.54814   -121.42718    294.62191 
   59000        59000    294.81171    92391.171    5089.9722   0.96344716   -327.65119    2966.8864    4854.4322    5788.3444      4627.14    598.25234    -354.6914   -317.02963    294.81171 
   60000        60000    292.32787    92391.171    4760.5364   0.96344716   -307.25799    2959.5226    4642.8738    5784.1565    3854.5788   -577.43666    395.90203    1758.2515    292.32787 
   61000        61000    297.96579    92391.171    5388.7654   0.96344716    -364.9784    2964.8063    6567.3276    4822.8586    4776.1099    32.359324   -623.81984   -1280.1354    297.96579 
   62000        62000    294.26708    92391.171    3194.2604   0.96344716   -347.28467    2941.1667    2514.1661     2539.535    4529.0802   -1105.2678    113.90398     -1231.77    294.26708 
   63000        63000    294.65838    92391.171    3383.3172   0.96344716   -290.12871    3002.6954    2595.2245    4599.8563    2954.8708   -52.477132   -11.719118    509.93241    294.65838 
   64000        64000    292.06504    92391.171    4612.1805   0.96344716   -386.34715    2877.4963    5683.9085    4669.0584    3483.5746   -267.70424   -215.66109   -318.38323    292.06504 
   65000        65000    299.18097    92391.171    3176.4669   0.96344716   -383.00731     2960.357    2910.4872    3648.4279    2970.4855   -224.29499    788.12593    739.46273    299.18097 
   66000        66000     288.5058    92391.171    2738.7733   0.96344716   -329.81058    2894.2581     2753.169    2829.1646    2633.9864    -1448.125    51.694519    1012.5913     288.5058 
   67000        67000    290.52595    92391.171    3313.9318   0.96344716   -371.78745    2874.8565    4465.3435    2238.7011    3237.7509   -351.66087    47.049518    217.55791    290.52595 
   68000        68000    295.09275    92391.171    5140.8551   0.96344716   -311.80248    2985.8758    5700.5784    4961.4971    4760.4897   -1258.4437   -786.29707    870.07454    295.09275 
   69000        69000    298.28251    92391.171    3453.2324   0.96344716   -427.47772    2905.8463    4388.1916    3451.3364    2520.1694   -1492.8182    505.89327    974.53335    298.28251 
   70000        70000    296.20112    92391.171    3392.0392   0.96344716   -377.62374    2932.4407    2869.5302    3093.1702    4213.4172    47.453698    237.28214    456.35282    296.20112 
   71000        71000    295.44567    92391.171    4589.2604   0.96344716   -320.80615     2980.816     3271.654    5754.9832    4741.1438   -742.34234   -459.28626   -305.37089    295.44567 
   72000        72000    293.12382    92391.171    4805.9193   0.96344716   -369.71631     2905.959    4931.8392    4731.2952    4754.6235   -1449.5702    118.24724    848.27475    293.12382 
   73000        73000    289.60365    92391.171    4065.7385   0.96344716   -355.65052    2880.6867    4539.0362     4319.779    3338.4003    -2049.359    661.85483    338.97398    289.60365 
   74000        74000    294.71874    92391.171    3210.0492   0.96344716   -322.19025    2971.3085    4447.1327     4436.783    746.23179   -48.218463   -886.58198    54.077198    294.71874 
   75000        75000    293.19953    92391.171     3749.762   0.96344716   -407.66144      2868.86    3246.8897    4126.0771    3876.3193   -448.16645   -1155.4771   -1432.6793    293.19953 
   76000        76000    294.10812    92391.171    3305.4025   0.96344716   -315.18031    2971.4947    2798.5196     3898.988    3218.6999   -792.55859    935.85473   -1537.8675    294.10812 
   77000        77000    291.40318    92391.171    3391.1265   0.96344716   -323.78909    2932.6581    3841.7559    3163.4956    3168.1281    -857.1265   -452.13076    936.06974    291.40318 
   78000        78000    295.79374    92391.171    2929.2057   0.96344716   -340.49767    2965.0142    2345.9404    3665.6012    2776.0755   -745.07503   -83.838359    733.41188    295.79374 
   79000        79000    289.62783    92391.171    4766.2535   0.96344716   -251.94539    2984.6621    2830.8766    5568.3279    5899.5561    26.226278     534.0192    933.45287    289.62783 
   80000        80000    291.99705    92391.171    4486.7079   0.96344716   -354.07065     2909.013     4261.387    3818.7295    5380.0071   -846.75514    -608.3185    1668.3013    291.99705 
   81000        81000    294.68994    92391.171    4115.6602   0.96344716    -251.2803    3041.8966    4796.4339     4345.007    3205.5398   -1954.0254    249.71472    141.40353    294.68994 
   82000        82000    286.98426    92391.171     5530.463   0.96344716    -332.4935    2874.5719    6419.1301    5687.1511    4485.1078    -910.6897      155.184    398.30535    286.98426 
   83000        83000    290.17173    92391.171     4159.602   0.96344716    -294.7998    2947.8857    5563.0967    3484.4979    3431.2114   -632.54861    171.74825    71.197691    290.17173 
   84000        84000    296.54446    92391.171    4777.7213   0.96344716   -397.23332    2916.6679    4152.7832     5441.458    4738.9227   -1237.8488   -657.81274    177.96828    296.54446 
   85000        85000    301.92912    92391.171    3350.1439   0.96344716   -316.52273    3057.5523    5393.3463    2841.7736    1815.3117   -467.32867   -253.74488   -1022.5324    301.92912 
   86000        86000    293.48735    92391.171    3897.1753   0.96344716    -395.5149     2884.223    4415.5599    3901.2119    3374.7542    768.50249   -46.643164   -265.70735    293.48735 
   87000        87000    292.28727    92391.171     3802.155   0.96344716    -247.1342    3019.1927    4276.8325    4493.6045    2636.0281    37.615956    1008.3346    903.63165    292.28727 
   88000        88000    296.92558    92391.171    3724.5419   0.96344716   -312.49246    3005.6678    3011.8736    3978.3804    4183.3718   -398.94676   -588.69422     56.28578    296.92558 
   89000        89000     289.0551    92391.171     3904.663   0.96344716   -354.66298    2875.5441    4776.8355    4012.1565    2924.9969     -1422.26    581.63556   -288.99879     289.0551 
   90000        90000    295.96355    92391.171    3018.7599   0.96344716   -327.44218    2979.9673    3982.4447    2631.0569    2442.7782   -1608.8735   -152.63265   -1469.7694    295.96355 
   91000        91000     291.2901    92391.171    4217.4539   0.96344716   -298.13994    2957.0435    5189.4448    3592.1855    3870.7314    -457.5842    11.275754   -164.73385     291.2901 
   92000        92000    291.26779    92391.171    4001.5928   0.96344716   -332.34181    2922.5923     4651.927    2093.4081    5259.4434   -679.45342    159.98988   -347.85639    291.26779 
   93000        93000    292.06299    92391.171     4121.915   0.96344716   -230.15643    3033.6641    3597.9714    5721.4231    3046.3506   -836.68226    438.74164    114.44397    292.06299 
   94000        94000     296.4221    92391.171    3903.6449   0.96344716   -386.08455    2926.4493    3530.2388    3933.8047    4246.8911   -451.78339    557.78586    305.73952     296.4221 
   95000        95000    297.36404    92391.171     5068.036   0.96344716   -280.63589    3042.4241    5028.6165    5234.9258    4940.5657   -1634.2196    571.16622    34.948347    297.36404 
   96000        96000    291.56469    92391.171    3084.7888   0.96344716   -318.25641    2939.9956    4125.6454    2423.1483    2705.5727   -1103.7212   -857.20542   -1229.7066    291.56469 
   97000        97000    292.66486    92391.171    4193.0568   0.96344716   -265.89583    3004.6506    3725.8643    4952.8578    3900.4483   -1157.2326   -478.38206    531.72792    292.66486 
   98000        98000    294.06351    92391.171    3470.7794   0.96344716   -301.26868    2984.9078     3932.163    3305.3865    3174.7888    202.83572   -800.49625   -529.77287    294.06351 
   99000        99000    293.21555    92391.171    1796.5404   0.96344716   -372.64957    2904.0509    2010.6558    1821.2548    1557.7105   -954.41794    395.94937    2176.1481    293.21555 
  100000       100000    297.66087    92391.171    4584.7542   0.96344716   -287.51889    3038.8583    4717.5469    4830.9335    4205.7821   -1071.6262    1060.9419    475.23696    297.66087 
  101000       101000    294.80944    92391.171    4951.5657   0.96344716   -263.48177    3031.0304    5262.3021    4548.8365    5043.5584   -2178.0566   -165.72577    393.90719    294.80944 
  102000       102000    291.82086    92391.171    1763.8169   0.96344716   -322.52134    2938.5934    1429.9938    2151.9445    1709.5124   -931.68593   -124.37106    941.53773    291.82086 
  103000       103000    297.70415    92391.171    3838.1975   0.96344716    -312.4451    3014.4158    2919.5115    4165.5852    4429.4958   -1354.9102    80.753189   -155.15619    297.70415 
  104000       104000    294.56876    92391.171    4459.6414   0.96344716   -283.29372    3008.5289    4486.3185    3963.3948     4929.211   -410.28378    -371.9851    692.36109    294.56876 
  105000       105000    301.95443    92391.171    3487.8763   0.96344716   -257.37144    3116.9865      3503.35    3021.9811    3938.2978   -1260.5564   -214.31976   -140.38162    301.95443 
  106000       106000    286.53005    92391.171    3400.9595   0.96344716   -342.46359     2859.526    3400.5995    1858.9214    4943.3576   -312.65236    706.88858   -363.24903    286.53005 
  107000       107000    294.26091    92391.171    5052.9507   0.96344716   -219.04074    3069.3416    4443.2188    5093.0931      5622.54    85.252821    508.31904    87.548112    294.26091 
  108000       108000    295.53424    92391.171    3050.8538   0.96344716   -352.34563    2950.2663    3580.4788    3387.6758    2184.4068   -467.10927   -1362.2146    302.84534    295.53424 
  109000       109000    288.73779    92391.171    4563.6743   0.96344716   -229.75412    2996.9072    3316.4643    5312.4453    5062.1135   -1100.5911   -625.45205    141.33586    288.73779 
  110000       110000    297.61271    92391.171    5218.1182   0.96344716   -253.08365    3072.7553    4429.5857    6334.3979    4890.3711   -198.37365    72.554212    919.55457    297.61271 
  111000       111000    296.98683    92391.171    3446.0718   0.96344716   -376.89145    2941.9532    2697.7399    4310.3895    3330.0861   -1144.1456    642.60585    1059.2001    296.98683 
  112000       112000     292.0769    92391.171    2881.5356   0.96344716   -312.74267    2951.2332    2199.9318    3885.6896    2558.9854   -1142.4125    432.04664    -269.8282     292.0769 
  113000       113000    293.15595    92391.171    5024.6122   0.96344716   -232.81533    3043.2191    5386.3546    3745.2617    5942.2203   -69.172818   -606.52282   -45.409792    293.15595 
  114000       114000    290.43367    92391.171    2836.5893   0.96344716   -276.60024    2969.0125    3032.9737    3636.0517    1840.7424    -1497.353    603.66196    154.38991    290.43367 
  115000       115000    292.13602    92391.171    5483.3893   0.96344716   -277.56232    2987.0743    5817.1667     5465.811    5167.1901   -1214.7834    370.33301    314.67046    292.13602 
  116000       116000    296.76304    92391.171     4599.881   0.96344716   -323.52348    2992.8204    4126.1578    4368.1242    5305.3611   -1124.0011   -61.617255    885.04117    296.76304 
  117000       117000    293.17323    92391.171    5080.6025   0.96344716   -252.43173    3023.7958    3525.7379    5933.7806    5782.2889   -1050.0412   -344.23204     612.6487    293.17323 
  118000       118000    297.90372    92391.171     3516.355   0.96344716   -303.51098      3025.58    4038.0576    2361.6188    4149.3886   -1517.1547   -261.46205    1166.9814    297.90372 
  119000       119000    296.58454    92391.171    3314.5332   0.96344716   -270.55645    3043.7927    3763.6779    3662.2797    2517.6419   -1277.9721    2059.7553    279.11402    296.58454 
  120000       120000    289.45792    92391.171    4312.5496   0.96344716   -240.14935    2994.5594    2698.9512    5581.6941    4657.0036   -1120.6787   -437.54425   -238.26703    289.45792 
  121000       121000    288.46462    92391.171    4468.1618   0.96344716   -306.25526    2917.3533    4204.0673    4362.3619    4838.0564   -635.04962    8.2051606    773.95286    288.46462 
  122000       122000    291.04379    92391.171    4646.2396   0.96344716   -236.61482    3015.8161    4343.8474    5457.6633    4137.2081   -21.996675    -91.51218   -34.323843    291.04379 
  123000       123000    287.90293    92391.171    3840.1824   0.96344716   -301.64026    2915.6914    2757.6076    4336.3245    4426.6151   -776.26081    1027.4498    57.545021    287.90293 
  124000       124000    298.05723    92391.171    3392.8989   0.96344716   -373.22086    2957.5856    3418.1055    2567.7429    4192.8483   -1721.5046    754.83112    512.23492    298.05723 
  125000       125000    295.22582    92391.171    3725.7167   0.96344716   -259.23417    3039.9311    3440.6507    3294.1162    4442.3832   -957.32759   -1103.0961    585.94143    295.22582 
  126000       126000    292.64952    92391.171    5945.1367   0.96344716   -336.68029    2933.6947    5729.2674    5671.2408    6434.9018   -376.22403    299.32398   -379.85927    292.64952 
  127000       127000    298.11819    92391.171    4111.3897   0.96344716   -254.73912    3076.7486    3727.4485    4058.0987     4548.622   -974.81942   -415.49412   -129.35147    298.11819 
  128000       128000    297.92301    92391.171    5154.6721   0.96344716   -245.01914    3084.2874    6166.6039    4563.3179    4734.0944   -334.49631    376.84847   -31.355724    297.92301 
  129000       129000     286.4188    92391.171    3908.3769   0.96344716    -312.9484     2887.798     3892.526    4499.0339    3333.5707   -772.04558    747.77562     -212.994     286.4188 
  130000       130000    297.52833    92391.171    4029.6736   0.96344716   -325.50233    2999.3937    4291.4638    5238.4033    2559.1536   -994.31659    1279.9901   -91.566465    297.52833 
  131000       131000    288.43416    92391.171    4677.4026   0.96344716   -186.14944    3037.1188    3564.5445     5297.912    5169.7515   -1061.1006    -649.4414   -817.77445    288.43416 
  132000       132000    295.85269    92391.171    4710.5519   0.96344716   -277.88967     3028.281    3024.4071    5687.0232    5420.2254   -1317.8442   -1555.6001    490.63767    295.85269 
  133000       133000    293.55811    92391.171    5116.1917   0.96344716   -287.54265    2992.9859    5500.3907    4352.4209    5495.7636   -1427.8237    1359.3793   -305.45994    293.55811 
  134000       134000    291.39648    92391.171    3740.8979   0.96344716   -283.98495    2972.3873    3110.8431    5350.8103    2761.0402   -811.41735   -241.62284   -17.307086    291.39648 
  135000       135000    295.87139    92391.171    3144.3951   0.96344716   -244.52973    3061.8498    2114.3392    3771.1527    3547.6934   -699.98609    975.08015    719.65099    295.87139 
  136000       136000      290.064    92391.171    3591.2008   0.96344716   -246.99515    2994.4865    3567.7671    5397.1099    1808.7254   -1162.6384   -357.58093    559.93985      290.064 
  137000       137000     287.8289    92391.171    4413.3608   0.96344716    -270.9403     2945.564    4289.7554    4507.1317    4443.1953    143.61349    -697.6505    751.89735     287.8289 
  138000       138000    293.10564    92391.171    4946.3072   0.96344716    -247.6486    3027.8236    5893.1401    5326.7702    3619.0113   -274.76635    397.08681    255.03386    293.10564 
  139000       139000    294.20214    92391.171    3625.4305   0.96344716   -258.96289    3028.7627    3589.5276    3429.1954    3857.5685   -2195.0838   -401.54279    451.77894    294.20214 
  140000       140000    290.21893    92391.171    4754.8051   0.96344716   -316.16534    2927.0477    4716.1185    4463.4367    5084.8601   -1024.0352    -55.29116    1018.0643    290.21893 
  141000       141000    297.77109    92391.171    5697.1092   0.96344716   -290.89265    3036.7162    6601.1558    6299.5796    4190.5921   -444.59666    153.88829    73.756316    297.77109 
  142000       142000     292.2448    92391.171    3150.7903   0.96344716   -277.85275    2987.9996    3990.4518     2326.881     3135.038   -1560.1943   -661.21553   -975.77982     292.2448 
  143000       143000    296.04731    92391.171    3566.9014   0.96344716    -241.6343    3066.7113    3190.9687    3098.7968    4410.9387   -516.49368    1363.3034    411.74374    296.04731 
  144000       144000    290.01742    92391.171     4148.061   0.96344716   -191.28009    3049.6811    4123.9535    5213.8972    3106.3323   -1496.3143    208.13848    285.18493    290.01742 
  145000       145000    291.44866    92391.171     3005.707   0.96344716   -240.63423    3016.3211    865.14181    3674.2258    4477.7533   -1757.0382   -162.40884   -305.30225    291.44866 
  146000       146000    297.01468    92391.171    3817.9879   0.96344716   -241.96071    3077.1952    3509.7073    3817.5833    4126.6731   -565.73114    117.23889   -113.97999    297.01468 
  147000       147000    292.83134    92391.171    4065.9891   0.96344716   -274.53836    2997.8685    3541.8926    5265.7979    3390.2769   -1643.6005   -398.17413   -111.04117    292.83134 
  148000       148000    304.76722    92391.171    4885.4213   0.96344716   -230.94758    3174.8435    5487.4549     5324.144     3844.665   -841.25208   -1315.3418    -892.7773    304.76722 
  149000       149000    291.46494    92391.171    3385.6779   0.96344716   -226.71409    3030.4232    3392.0456    4113.3852     2651.603   -144.09921   -183.12025    1134.1114    291.46494 
  150000       150000    290.05067    92391.171    4165.7665   0.96344716   -296.07157    2945.2612    4372.9372    3096.2079    5028.1543   -785.37037   -1382.6961   -69.648595    290.05067 
  151000       151000    291.99553    92391.171    4198.7369   0.96344716   -203.70487    3059.3618    5775.9219    3258.5627    3561.7262    -726.9636   -588.35183    41.825028    291.99553 
  152000       152000    295.71309    92391.171    5281.2064   0.96344716   -280.28958    3024.3211    5564.4308    6202.1062    4077.0821    111.60265   -927.21015    -93.60968    295.71309 
  153000       153000    291.07736    92391.171    3671.2294   0.96344716   -278.96579    2973.8403    2977.5056     5338.239    2697.9436   -1077.9661   -645.12289    804.30836    291.07736 
  154000       154000    294.25705    92391.171    4488.7681   0.96344716   -294.10232     2994.237    4809.2606    4248.4759    4408.5677    59.538005    987.04857   -803.69474    294.25705 
  155000       155000     291.8979    92391.171    4243.1014   0.96344716   -194.86526    3067.1104    4033.0132    4426.4351    4269.8559   -2290.1068     472.2773    1273.5314     291.8979 
  156000       156000    291.57961    92391.171    5344.8169   0.96344716   -203.52035    3054.8984    5486.1705    4876.1342    5672.1459   -1080.4037    317.87427    622.66199    291.57961 
  157000       157000    286.53165    92391.171    3732.5925   0.96344716   -215.92961    2986.0778    3050.7978    4368.7363    3778.2435   -772.14316   -226.96855   -1115.6728    286.53165 
  158000       158000    296.31598    92391.171    4671.6519   0.96344716   -213.40472    3097.9432    4889.0976    5042.9703    4082.8876   -826.94224    205.18579   -791.56364    296.31598 
  159000       159000     286.5532    92391.171    4293.5995   0.96344716   -267.49333     2934.755    2812.8653    5127.0213    4940.9119   -465.07702     529.4588    599.85445     286.5532 
  160000       160000     299.4322    92391.171    3916.3912   0.96344716   -217.32863    3128.8432    3465.6247     3782.428    4501.1209   -1590.0831    22.500787    221.81821     299.4322 
  161000       161000    291.64809    92391.171    3759.0088   0.96344716   -247.94581    3011.2382    3901.1726    4180.2213    3195.6326   -1504.6966    150.88374    77.707284    291.64809 
  162000       162000     297.1606    92391.171      2925.42   0.96344716   -193.81051    3126.9761     3758.511    858.08665    4159.6623   -1713.4975     694.3073    1103.5414     297.1606 
  163000       163000     298.3706    92391.171    4259.6924   0.96344716    -269.0555    3065.2529    3697.5361     4967.961    4113.5801   -1086.4934    154.63773    1451.2957     298.3706 
  164000       164000    288.28983    92391.171    3892.8953   0.96344716   -372.05034    2849.6049    4310.0475     4793.772    2574.8666   -1583.2693    -212.8988    223.14112    288.28983 
  165000       165000    293.65293    92391.171     4358.079   0.96344716   -129.87343    3151.7148    3931.4204    4771.7319    4371.0846    -747.8809   -789.31686    654.12255    293.65293 
  166000       166000    283.47435    92391.171    3307.4356   0.96344716   -226.90054    2940.9414    3971.6448      1974.98     3975.682   -2174.8899   -533.19927   -272.08722    283.47435 
  167000       167000    298.88912    92391.171    3568.0479   0.96344716   -207.26253    3132.8404    2833.8255    4484.9731    3385.3451   -994.76017    270.54433   -490.84893    298.88912 
  168000       168000    291.11347    92391.171    4255.3516   0.96344716   -147.84838    3105.3612    3625.5038    4195.9176    4944.6334   -1801.0178   -272.93987    246.87835    291.11347 
  169000       169000    294.20982    92391.171    4333.7861   0.96344716   -293.33022    2994.4812    3909.0192    4267.6214    4824.7178   -1423.0199    1019.4901   -250.26367    294.20982 
  170000       170000    289.98897    92391.171    4762.8375   0.96344716   -224.80709    3015.8361    4574.6075    3435.3781    6278.5269   -317.17347    410.31725    123.82175    289.98897 
  171000       171000    297.35537    92391.171    5864.3601   0.96344716    -295.0586    3027.9046    5533.1036    6468.7425    5591.2342   -215.38245   -187.34259    210.27453    297.35537 
  172000       172000    297.99912    92391.171    4526.0774   0.96344716   -272.79129    3057.3658    3606.0444    5245.3427     4726.845   -1278.2782    613.73106   -580.84459    297.99912 
  173000       173000    281.95545    92391.171    5851.5502   0.96344716   -178.74629    2972.1219    6037.3258    6985.2302    4532.0946     282.3637    1288.7135    307.03925    281.95545 
  174000       174000     294.6331    92391.171    4413.9801   0.96344716   -266.18727    3026.3544    4594.4298    4246.0352    4401.4753   -1206.4061     357.8415   -175.32684     294.6331 
  175000       175000     295.2062    92391.171    3547.2527   0.96344716   -214.64645    3084.2997    3583.2156    3427.6487    3630.8936    336.79377   -1445.2259    -289.7132     295.2062 
  176000       176000    296.37447    92391.171    3837.5966   0.96344716   -304.29254     3007.709    3540.9893    3591.4543    4380.3461    149.47954   -278.78118   -1311.4849    296.37447 
  177000       177000     296.6848    92391.171    4401.5764   0.96344716    -213.8378    3101.6317    5115.6173    3723.5675    4365.5443   -808.94712   -82.186263   -1095.1246     296.6848 
  178000       178000    287.11234    92391.171     3788.746   0.96344716   -222.41134    2986.0854    4784.1838    2598.0832    3983.9709   -1094.4642   -387.09981   -1157.8799    287.11234 
  179000       179000    293.93201    92391.171    3588.0116   0.96344716   -204.14262    3080.5643     3046.138    4778.7092    2939.1877   -1145.9429    132.02763    504.62413    293.93201 
  180000       180000    294.35302    92391.171    4849.4628   0.96344716   -256.37684    3033.0349    4931.3558    5760.8588    3856.1739   -865.41094    232.12756    707.84224    294.35302 
  181000       181000    292.43048    92391.171    2426.7361   0.96344716   -205.35458    3062.5727    1877.6126    1579.9704    3822.6252   -1187.8319    995.99983    365.59376    292.43048 
  182000       182000    296.46404    92391.171    4756.5187   0.96344716   -273.95914    3039.0434    4129.5984    4395.7474    5744.2104   -1047.3931    893.59629    891.72432    296.46404 
  183000       183000    295.96866    92391.171    4257.2434   0.96344716    -214.2718    3093.1948    3599.9051    4217.2773    4954.5477   -854.62488   -4.0934311   -277.09324    295.96866 
  184000       184000     291.2557    92391.171     4841.242   0.96344716   -251.88306    3002.9159    4629.3743    5331.0975    4563.2541   -680.90071    552.00814   -623.13367     291.2557 
  185000       185000    290.10909    92391.171    4157.0163   0.96344716   -183.28967     3058.696    4074.5764    4327.3347    4069.1379   -579.20756    1032.7211    80.937605    290.10909 
  186000       186000    292.52058    92391.171    5163.4183   0.96344716   -225.01628    3043.9178    3761.7763    7076.1879    4652.2907   -698.18947    352.00579   -315.61604    292.52058 
  187000       187000    289.37595    92391.171    5152.4773   0.96344716   -224.89147    3008.9012    6278.5976    5523.8409    3654.9935   -818.78618    346.31745    307.04739    289.37595 
  188000       188000    300.36718    92391.171     3063.309   0.96344716    -244.9377    3111.6826     3407.376    1642.5582    4139.9928   -2936.6115    2.0896637    175.76788    300.36718 
  189000       189000    291.16487    92391.171    4022.4128   0.96344716   -148.38665    3105.3973    3058.5392    5396.4007    3612.2986   -1296.2808   -243.71465   -300.01059    291.16487 
  190000       190000    298.83124    92391.171    4427.0662   0.96344716   -273.98634    3065.4698     5455.278    3177.4443    4648.4763   -1401.2598   -401.61653   -170.04403    298.83124 
  191000       191000    299.22222    92391.171    4836.1869   0.96344716   -248.17157    3095.6537    4651.2567    4662.0361    5195.2681   -716.62068    347.01659   -45.765246    299.22222 
  192000       192000    289.78258    92391.171    4642.0453   0.96344716   -253.17359    2985.1632    5550.7336    3944.7889    4430.6136   -872.78481    1072.7453   -315.45518    289.78258 
  193000       193000    293.83529    92391.171    3365.2187   0.96344716   -199.65158    3083.9745    3166.5171    3188.2471    3740.8921   -933.44418    -10.52462    1252.6736    293.83529 
  194000       194000    292.87489    92391.171    5779.5545   0.96344716   -289.85041    2983.0432    5527.0011     5812.882    5998.7803   -213.63336    1100.5883    471.55315    292.87489 
  195000       195000    294.75552    92391.171    4102.7168   0.96344716   -204.39303    3089.5167    4202.0418    4077.1051    4029.0036   -998.43513    495.63696    393.97015    294.75552 
  196000       196000    296.21516    92391.171    4155.9409   0.96344716   -211.64264    3098.5786    4431.1633    4648.3441    3388.3153   -1362.5088    838.72332   -493.00529    296.21516 
  197000       197000    294.42658    92391.171    3780.6652   0.96344716   -295.63927    2994.5945     4331.946    4177.3732    2832.6764   -533.54725   -59.444355    340.68953    294.42658 
  198000       198000    292.50275    92391.171    3655.3796   0.96344716   -132.87393    3135.8609    3248.7831    3634.5241    4082.8317   -656.93744     305.7499    -85.59871    292.50275 
  199000       199000    300.75052    92391.171    5795.0915   0.96344716   -259.84546    3101.0587    5418.2022    5544.5281    6422.5443    476.90848    47.764217   -1.7533688    300.75052 
  200000       200000    288.28297    92391.171    4748.3807   0.96344716   -218.37688    3003.2018     5637.881    4315.5291    4291.7321   -934.60793   -1094.6575   -254.34156    288.28297 
  201000       201000    293.82192    92391.171    3724.9028   0.96344716   -199.08512    3084.3915    4274.0704     3006.962     3893.676   -1864.4308   -1425.0115   -559.92937    293.82192 
  202000       202000    289.35019    92391.171    4914.1877   0.96344716   -178.91164    3054.5932    5972.9907    3917.1896    4852.3829   -736.24952    121.51151    164.26231    289.35019 
  203000       203000    292.80185    92391.171    4263.9258   0.96344716   -273.51737      2998.56    3768.7533    4428.4196    4594.6046   -1450.6199    1106.4224     751.7276    292.80185 
  204000       204000    291.83943    92391.171    3280.9466   0.96344716   -253.87716    3007.4451    2521.3166    2769.9971    4551.5262   -868.82534    311.39905   -539.07334    291.83943 
  205000       205000    287.14994    92391.171    4226.6555   0.96344716   -135.11772    3073.7992    5211.4576    3216.5232    4251.9857   -992.72974     227.9033   -972.80923    287.14994 
  206000       206000    295.70094    92391.171    3211.2264   0.96344716   -219.13701    3085.3378    2006.8518    3652.6399    3974.1875   -913.53979   -307.45941    249.88417    295.70094 
  207000       207000     298.2632    92391.171    5662.8302   0.96344716   -286.50498    3046.6032    7034.4599    4668.8081    5285.2225   -354.85674   -143.61784     591.3149     298.2632 
  208000       208000     294.7121    92391.171    4431.9433   0.96344716   -275.85547     3017.569    5864.9595    2084.1061    5346.7642   -1384.7134   -449.68304    35.935736     294.7121 
  209000       209000    296.18608    92391.171    4036.0247   0.96344716   -176.87324    3133.0231    4642.1731    3891.4661    3574.4347   -958.30981   -507.50476    989.69579    296.18608 
  210000       210000    288.74128    92391.171    4499.5453   0.96344716   -221.28025      3005.42    4329.0567    5119.4002     4050.179   -2205.1864    4.4203194    884.19152    288.74128 
  211000       211000    298.82744    92391.171    5072.8213   0.96344716   -271.30005    3068.1135     4341.401    5160.2897    5716.7731   -659.64969    426.94651   -900.90493    298.82744 
  212000       212000    289.91807    92391.171    3982.4246   0.96344716   -189.26574    3050.5852    4169.6343    4231.2171    3546.4224    333.53655   -706.95435   -1864.4645    289.91807 
  213000       213000     291.0292    92391.171    4911.1593   0.96344716   -239.85823    3012.4096    5092.5812    4143.4442    5497.4524   -520.23406    410.75312    1235.2886     291.0292 
  214000       214000    296.57332    92391.171    4314.4627   0.96344716    -170.5369    3143.6868    4405.9738     4674.325    3863.0892   -727.15317   -311.73325    833.01565    296.57332 
  215000       215000    297.16899    92391.171    4570.9733   0.96344716   -299.61521    3021.2651    5127.2297    3579.8429    5005.8471   -1448.6116    304.36869    226.85283    297.16899 
  216000       216000    295.95506    92391.171    2418.1928   0.96344716   -177.94283    3129.3718    1220.3158     3228.544    2805.7186   -1198.9037   -719.09625    754.67752    295.95506 
  217000       217000    296.13715    92391.171    3823.7643   0.96344716   -226.51721    3082.8323    4261.0948    4036.8721    3173.3262   -46.636216    161.02848   -469.01936    296.13715 
  218000       218000    288.59394    92391.171    5129.7258   0.96344716   -313.49131    2911.5624    5091.5912    5200.1175    5097.4686   -1445.0845   -70.298794    307.01525    288.59394 
  219000       219000    296.34975    92391.171    5436.0847   0.96344716   -148.13858    3163.5867    6092.3186    5734.9778    4480.9578   -1226.3032   -283.19702    355.11698    296.34975 
  220000       220000    294.06117    92391.171    4005.4404   0.96344716   -222.48863    3063.6616    3512.4904    4891.6937    3612.1372   -1160.9392    209.05101   -100.06278    294.06117 
  221000       221000    292.41901    92391.171    4654.7021   0.96344716   -272.18455    2995.6145    5035.9731    5209.1528    3718.9804   -332.64906    386.09458     216.0018    292.41901 
  222000       222000    295.49716    92391.171    5043.3988   0.96344716   -128.58375    3173.6138    5057.2769    4238.0511    5834.8682   -1426.2314    1192.5142    384.91698    295.49716 
  223000       223000    288.86394    92391.171    4190.5636   0.96344716   -245.27579    2982.7952    5366.9325    3243.4768    3961.2815   -929.93352    696.06225    438.79326    288.86394 
  224000       224000     299.0637    92391.171    5549.4429   0.96344716   -221.95665    3120.0972    5724.4243    5204.4722    5719.4324   -411.23555    44.472138    212.14803     299.0637 
  225000       225000    293.93554    92391.171    3035.3655   0.96344716   -216.17266    3068.5737    1917.4068    3982.8326    3205.8571   -1437.7198   -535.92721   -1115.9422    293.93554 
  226000       226000    294.50362    92391.171    4627.0819   0.96344716   -132.47861    3158.6161    3661.3019    6055.0762    4164.8677   -1512.7725    318.56786    360.72403    294.50362 
  227000       227000    282.74176    92391.171    4317.5574   0.96344716   -233.55399    2926.1012    4567.3824    4705.6732    3679.6166    402.80435   -479.24401    1130.9391    282.74176 
  228000       228000    296.04939    92391.171    4308.6797   0.96344716   -167.57735    3140.7915    3675.9377    4658.8183     4591.283   -1330.8704   -5.0639413   -374.49335    296.04939 
  229000       229000    289.39633    92391.171    5400.6361   0.96344716   -220.14467    3013.8757    5025.3121    4969.2792    6207.3171   -1212.9969   -479.72345    125.97655    289.39633 
  230000       230000    292.61687    92391.171    5215.9308   0.96344716   -153.92757    3116.0826    5721.9789      4401.22    5524.5934   -1296.0365    827.31572    919.62741    292.61687 
  231000       231000    293.28097    92391.171    4434.9285   0.96344716   -218.61699    3058.8145    5216.7673    3936.5882      4151.43   -1207.0422   -796.12404    95.807295    293.28097 
  232000       232000    290.26778    92391.171     5227.494   0.96344716   -199.18693    3044.5721    5875.8168    5234.9326    4571.7327   -2095.8433    -931.9646   -321.35818    290.26778 
  233000       233000    291.79594    92391.171    5640.9968   0.96344716    -217.8499    3042.9863    5971.9224    5407.2183    5543.8496   -1235.4697    258.15189    343.07386    291.79594 
  234000       234000    296.76419    92391.171    4514.0385   0.96344716   -216.33489    3100.0218    4902.0732    4164.5382    4475.5042   -1089.3007    205.80759   -645.51625    296.76419 
  235000       235000    290.44754    92391.171    5064.6961   0.96344716   -237.14128    3008.6265     3425.995    5693.4368    6074.6564   -2123.6612   -1032.8578    122.58959    290.44754 
  236000       236000    294.67402    92391.171    7178.0715   0.96344716   -147.38012    3145.6188    5713.9333    7501.3534    8318.9277    40.080209   -599.12602   -532.55758    294.67402 
  237000       237000    296.04673    92391.171    3715.8808   0.96344716   -224.02031    3084.3187    3754.5173    2580.0421    4813.0829   -879.90406   -1180.4268    500.72588    296.04673 
  238000       238000    293.26186    92391.171    4163.9002   0.96344716   -191.46851    3085.7495     5220.341    3129.9548    4141.4048   -837.17643   -444.61774    738.98146    293.26186 
  239000       239000    297.42795    92391.171    3325.7756   0.96344716    -191.9305    3131.8438    2964.6616    2607.0033     4405.662   -938.92743   -557.05353   -603.40639    297.42795 
  240000       240000    289.15205    92391.171    2949.6855   0.96344716   -241.91558     2989.375    2667.7109    2874.4334    3306.9121   -1896.9524   -354.33884     -259.614    289.15205 
  241000       241000    298.26331    92391.171    5399.2931   0.96344716   -178.21949      3154.89    6320.3014    4699.0699    5178.5081   -336.37938    734.81524    128.56058    298.26331 
  242000       242000    295.96067    92391.171    4127.6906   0.96344716    -287.2908    3020.0865    4171.2321    3631.8643    4579.9752   -595.09175   -173.32659    331.43044    295.96067 
  243000       243000    293.95427    92391.171    4448.6053   0.96344716   -153.09335    3131.8623    4216.8741      5162.36    3966.5818   -1626.4894     -327.691    1498.6395    293.95427 
  244000       244000    292.95667    92391.171    5322.2444   0.96344716   -195.35603    3078.4514    5342.2852    4631.9714    5992.4767   -745.88962   -677.29527    78.223531    292.95667 
  245000       245000    294.16735    92391.171    4931.1509   0.96344716   -165.73561    3121.6013    5780.9209    3169.5931    5842.9385     -652.142    -318.8479    836.79142    294.16735 
  246000       246000    290.11847    92391.171    5343.4905   0.96344716    -239.7758    3002.3146    6155.7107    5268.5592    4606.2016   -590.51011   -124.88533    1277.2022    290.11847 
  247000       247000      292.343    92391.171    4267.6634   0.96344716   -103.58603    3163.3636    4565.3274    4208.3147    4029.3482   -314.06315     10.30321    820.42404      292.343 
  248000       248000    289.38027    92391.171    5892.2198   0.96344716   -230.98575    3002.8552    5106.1322    5637.1558    6933.3715   -1158.4403   -541.49575   -310.06984    289.38027 
  249000       249000    295.49789    92391.171    5307.2815   0.96344716   -108.21567      3193.99    6080.8562    5576.7085    4264.2799   -2509.8531     357.1938    946.89679    295.49789 
  250000       250000    287.03263    92391.171    3471.0657   0.96344716   -252.81799     2954.788    3012.8513    4395.7209    3004.6249   -702.00411   -367.29901    1115.5179    287.03263 
  251000       251000    297.20288    92391.171    5599.5147   0.96344716   -166.95135    3154.3077    5788.2501    5970.3964    5039.8976   -729.40053    -413.3962   -547.28788    297.20288 
  252000       252000    293.33273    92391.171    6368.9431   0.96344716   -216.47612    3061.5338    5209.0645    6348.1429    7549.6218   -2963.0798    907.91383    954.91837    293.33273 
  253000       253000    296.63814    92391.171    4261.2391   0.96344716   -190.54789    3124.4002    3262.6785     3123.284    6397.7546   -929.05043    367.96516     14.83624    296.63814 
  254000       254000    287.06162    92391.171    4273.1094   0.96344716   -212.18519    2995.7447    4512.3253    5072.0992    3234.9037   -550.96926   -894.08528    152.19607    287.06162 
  255000       255000    295.22624    92391.171    4559.1617   0.96344716   -210.32596    3088.8441      3710.86    5587.7254    4378.8998   -1256.0057    219.42305    805.36167    295.22624 
  256000       256000    292.95105    92391.171      4044.13   0.96344716   -146.84687    3126.8978    2877.3389    5005.1841    4249.8669   -1628.4042    31.572985    20.950049    292.95105 
  257000       257000    292.52183    92391.171    5342.5555   0.96344716   -264.09107     3004.857    7085.6966    5100.7537    3841.2161   -1033.3773    42.548494   -555.84351    292.52183 
  258000       258000    298.09854    92391.171    4642.1879   0.96344716    -184.7718    3146.4964    4588.1576    4009.9974    5328.4087    -496.2406   -500.07549    580.63278    298.09854 
  259000       259000     294.7118    92391.171      3718.21   0.96344716   -160.07168    3133.3494      4217.79    3852.0239    3084.8162    -687.5009   -752.38797    1332.1472     294.7118 
  260000       260000    291.91195    92391.171    5132.3062   0.96344716   -190.12856    3072.0041     5644.511    3716.4885    6035.9192   -1634.5861   -79.529745    453.23848    291.91195 
  261000       261000    297.72869    92391.171    5918.3311   0.96344716   -233.43582    3093.6992     5732.571    5492.0322    6530.3902    -1287.705   -156.68309   -317.60378    297.72869 
  262000       262000    295.35741    92391.171    4760.3323   0.96344716    -167.0888     3133.547    3986.5195    6807.6729    3486.8044     2.059486   -125.68542    1339.2908    295.35741 
  263000       263000    290.88644    92391.171    4704.1869   0.96344716   -147.71347    3102.9591     4955.182     3644.899    5512.4796   -895.59151    31.167868   -305.83356    290.88644 
  264000       264000    292.00168    92391.171    4969.2853   0.96344716   -156.97368    3106.1617    6537.8878    4604.1348    3765.8333    16.130131   -498.69513   -212.79266    292.00168 
  265000       265000    292.65974    92391.171    5175.6384   0.96344716   -214.87558    3055.6137     4814.705    4702.3421    6009.8682   -1653.4497   -19.524784    497.15743    292.65974 
  266000       266000    298.53955    92391.171    3268.2436   0.96344716   -175.09397    3161.1025    3226.4532    3813.1511    2765.1266   -369.78563    389.43726    407.20529    298.53955 
  267000       267000    289.67189    92391.171    4231.1221   0.96344716    -161.3163    3075.7836    3814.0249    4261.4019    4617.9396   -154.88127    209.49121   -293.92375    289.67189 
  268000       268000    293.71902    92391.171    5622.5789   0.96344716   -167.39549    3114.9313    5823.8283    5151.9359    5891.9725   -914.65853   -523.83102    31.014178    293.71902 
  269000       269000    292.13904    92391.171    3668.0843   0.96344716   -174.20171    3090.4687    2070.5261    5313.4964    3620.2304   -594.53206   -324.96581    -500.1305    292.13904 
  270000       270000     292.8003    92391.171    4791.4726   0.96344716   -133.70764    3138.3524    5193.4026    4147.1877    5033.8275   -2335.2817    353.05258   -397.75265     292.8003 
  271000       271000    290.91675    92391.171    4058.5148   0.96344716   -224.82214    3026.1891    3386.5679    4408.9951    4379.9814   -1416.8703    699.69255     984.4792    290.91675 
  272000       272000    295.36865    92391.171    4718.3711   0.96344716   -202.90845     3097.853    4304.1763    6511.5135    3339.4235   -901.67942   -558.50832    1315.5649    295.36865 
  273000       273000    294.07417    92391.171    4221.7536   0.96344716    -273.0655    3013.2301    4119.8306    4126.8873    4418.5429   -2127.4407   -150.88667    1025.8564    294.07417 
  274000       274000    293.17291    92391.171    5266.2937   0.96344716   -192.44171    3083.7822    5774.2711    4768.8445    5255.7656   -1281.8913   -677.65546     1266.404    293.17291 
  275000       275000    287.98996    92391.171    4592.2522   0.96344716   -168.83095    3049.4733    4791.7226    4761.5273    4223.5066   -1063.4226    492.59904    160.46496    287.98996 
  276000       276000    293.92807    92391.171    4004.3662   0.96344716   -197.24336    3087.4195    4628.2966    3373.8951    4010.9068     339.9706    640.24622    59.146638    293.92807 
  277000       277000    289.50594    92391.171     4456.788   0.96344716   -233.40782    3001.8376    3530.8409    4139.1971    5700.3259   -1221.7859   -503.35595     457.1897    289.50594 
  278000       278000    296.18128    92391.171    5349.6438   0.96344716   -165.08703    3144.7557     5253.156    4574.1005    6221.6749   -614.31371   -797.72951   -76.796483    296.18128 
  279000       279000    293.31319    92391.171      5487.44   0.96344716   -262.66785    3015.1237    6001.8572    5870.1036    4590.3593   -2212.1734     949.5149    1233.6258    293.31319 
  280000       280000    302.12783    92391.171    3740.5888   0.96344716   -210.39961     3165.896    4105.1837    3823.6523    3292.9304   -732.06299     569.0712   -927.34398    302.12783 
  281000       281000    294.31066    92391.171    3607.2219   0.96344716   -218.82231    3070.1161    1910.9342     5594.184    3316.5476    101.59247    349.50961    415.46823    294.31066 
  282000       282000    293.58493    92391.171    4055.5931   0.96344716   -178.01061    3102.8177     3544.976    4826.5276    3795.2758   -765.32238   -428.11156    111.97507    293.58493 
  283000       283000     291.0976    92391.171     4769.295   0.96344716   -215.43256    3037.5997    4545.4414    4523.2237    5239.2197   -1054.4702   -364.13671    807.11883     291.0976 
  284000       284000    290.81393    92391.171    3808.6074   0.96344716   -69.155216     3180.707    3527.7188    5216.4497    2681.6536   -1503.5862   -73.396147   -808.41475    290.81393 
  285000       285000    294.91504    92391.171     3319.437   0.96344716   -201.88951    3093.8028     3056.564    2456.4183    4445.3287   -543.47922   -30.241077    1026.2956    294.91504 
  286000       286000    290.73566    92391.171    4005.2815   0.96344716   -212.35178    3036.6358    4217.8795    4399.7405    3398.2245    -440.3519    1299.7159    1044.6016    290.73566 
  287000       287000    294.93545    92391.171    4574.7168   0.96344716    -106.0223    3189.8981    5041.2809    5437.8935    3244.9761   -1175.0119    1069.7504     -709.232    294.93545 
  288000       288000     297.2547    92391.171    5363.3143   0.96344716   -207.71946    3114.1188    5114.0517    5434.0335    5541.8575   -758.90037    -808.8215    -436.4889     297.2547 
  289000       289000    294.82727    92391.171    5207.8555   0.96344716   -149.28791    3145.4236    4769.5188    5646.7468     5207.301   -1499.3115   -56.365044    86.164215    294.82727 
  290000       290000     288.4396    92391.171    4115.5982   0.96344716   -179.71902    3043.6099     3592.351    4099.6863    4654.7573    -1158.348    86.001295     970.0376     288.4396 
  291000       291000    295.62638    92391.171    4642.4153   0.96344716   -229.44667    3074.1949    3968.2959    5181.0555    4777.8944   -1228.8512   -304.94175    546.13055    295.62638 
  292000       292000    299.36601    92391.171    4640.3714   0.96344716   -161.50494    3183.9272    4633.8554    3698.7735    5588.4852   -231.16646    -222.5624   -1051.3644    299.36601 
  293000       293000    287.39077    92391.171    4090.1355   0.96344716   -218.39087    2993.2173    4576.4674    3523.1641    4170.7749   -2031.7505   -1087.2073   -1448.6813    287.39077 
  294000       294000    298.98768    92391.171    4667.7805   0.96344716   -164.03941    3177.1649    4432.5079     4775.753    4795.0805   -1535.5395     252.1336    239.59887    298.98768 
  295000       295000    292.43321    92391.171    5144.4312   0.96344716   -298.86228    2969.0955    4349.6597    5978.9935    5104.6404   -1795.4905   -124.84354   -695.61913    292.43321 
  296000       296000    296.66302    92391.171     4761.456   0.96344716   -102.88822    3212.3379    2798.6772    6009.2668     5476.424   -501.61826    437.72719   -242.97127    296.66302 
  297000       297000    294.55425    92391.171    5603.8009   0.96344716   -195.24211    3096.4184    5295.0088    6119.2617    5397.1323   -352.08103   -1655.0868   -318.05633    294.55425 
  298000       298000    291.05608    92391.171    4251.0821   0.96344716   -94.106222    3158.4621    4026.4328    4867.0434    3859.7699   -676.17316    71.797921     545.7833    291.05608 
  299000       299000    290.32981    92391.171    4078.1499   0.96344716   -113.45358    3130.9986    4018.1348    5854.8763    2361.4385    213.05409    386.47751    -613.7125    290.32981 
  300000       300000    287.36069    92391.171    3666.6049   0.96344716   -229.38668    2981.8854    3330.0173    3802.9082    3866.8893    -1475.547    326.22267    845.92637    287.36069 
  301000       301000    294.31776    92391.171     3871.198   0.96344716   -192.09599    3096.9217    3964.6842    4735.2407    2913.6689   -215.28287    529.45966   -40.628405    294.31776 
  302000       302000    297.67906    92391.171    5932.9338   0.96344716   -173.24628    3153.3342    4539.8658     6408.714    6850.2215   -772.39546   -742.95398   -1330.0559    297.67906 
  303000       303000    293.59362    92391.171    5064.7212   0.96344716   -164.92138     3116.004    5338.2819    5922.0848     3933.797   -781.99938   -292.80108    306.39466    293.59362 
  304000       304000    288.86692    92391.171    4788.2602   0.96344716    -201.2735    3026.8308     5138.412    4169.3272    5057.0415   -2762.4533   -455.40098    1011.7463    288.86692 
  305000       305000    294.51623    92391.171    5267.8864   0.96344716   -120.20161     3171.034    4446.1344     5317.492    6040.0328     -1743.02   -376.67351   -107.46116    294.51623 
  306000       306000    295.35987    92391.171    5115.7716   0.96344716   -182.50753    3118.1558     4007.741    5783.2117    5556.3621   -1568.2531    1207.4592    179.57902    295.35987 
  307000       307000    285.12391    92391.171    4417.0999   0.96344716   -92.625018    3093.6509     4955.273    4601.4223    3694.6044   -876.15525    1019.6636   -1700.5943    285.12391 
  308000       308000     291.2959    92391.171    4066.5117   0.96344716   -169.33864    3085.9096    2722.5944    5199.5913    4277.3492   -1742.9753   -405.18053    113.11917     291.2959 
  309000       309000    293.09304    92391.171    4980.6221   0.96344716   -208.58684    3066.7446    5423.5738    6045.2811    3473.0114   -2464.7215    338.31024    444.31495    293.09304 
  310000       310000    293.18455    92391.171    3562.9801   0.96344716   -151.40347    3124.9506    3648.8913    3816.0267    3224.0223   -1060.0514     459.7824   -128.51121    293.18455 
  311000       311000    292.97284    92391.171    4854.8166   0.96344716   -152.22557    3121.7626    5932.4794     4242.871    4389.0993   -1576.9618   -480.54401   -459.03658    292.97284 
  312000       312000    293.57022    92391.171    3747.9092   0.96344716   -163.25959    3117.4043    3680.0522    4392.3335    3171.3417   -311.34479   -351.58462   -206.14364    293.57022 
  313000       313000    293.29424    92391.171    5089.0944   0.96344716   -146.47531    3131.1045    3174.0557    5916.7397    6176.4877   -641.38659   -178.49062   -368.47252    293.29424 
  314000       314000    286.60365    92391.171     4360.709   0.96344716   -154.00635    3048.8057     4558.326    3728.3483    4795.4527    705.56914    544.73735    420.80904    286.60365 
  315000       315000    296.01272    92391.171    3878.8302   0.96344716   -90.342677    3217.6163    4222.0858    2744.5523    4669.8526   -2541.1758   -480.66362   -476.42834    296.01272 
  316000       316000    288.95714    92391.171    5533.2653   0.96344716   -200.44592    3028.6665    6651.6605     5819.293    4128.8422   -770.84581    1530.8161    255.97944    288.95714 
  317000       317000    296.46991    92391.171    3572.2924   0.96344716   -190.87682    3122.1913    3562.2079    4196.7337    2957.9356   -495.27693   -717.18446   -1137.5777    296.46991 
  318000       318000    291.47478    92391.171    4921.7608   0.96344716   -97.143076    3160.1042    5030.5166    5876.1549    3858.6109   -395.39893    142.03983   -215.06977    291.47478 
  319000       319000     293.1581    92391.171    4836.6899   0.96344716   -150.47972    3125.5788    5399.7757    4357.3091    4752.9847   -1780.5218    832.45313    1111.1868     293.1581 
  320000       320000    295.56233    92391.171    4034.3783   0.96344716   -113.82545    3189.1004    5563.6881    3304.3584    3235.0884   -1558.6444   -283.87556    596.87513    295.56233 
  321000       321000    291.55182    92391.171    4359.1578   0.96344716   -143.79155    3114.3166     4792.413    3634.0992     4650.961   -1288.6696   -220.84374   -547.89753    291.55182 
  322000       322000    297.08093    92391.171     4662.423   0.96344716     -221.651    3098.2453    4748.0895    4706.7953    4532.3843   -331.52436   -743.82277   -712.80981    297.08093 
  323000       323000    292.09262    92391.171    4944.7814   0.96344716   -121.81064     3142.341    4779.8403    6070.8115    3983.6925   -1350.8275    153.15292   -495.90857    292.09262 
  324000       324000    292.12528    92391.171     5004.556   0.96344716   -164.68077    3099.8358    5663.0967     5281.939    4068.6323   -1206.9013    679.09839   -113.08006    292.12528 
  325000       325000    294.12269    92391.171    3785.0933   0.96344716   -218.17904    3068.6588    3697.9455    3679.3261    3978.0083   -1286.2937     847.1409    556.88847    294.12269 
  326000       326000    290.56785    92391.171    3324.9105   0.96344716    -55.40683    3191.7055    3009.1067    4346.7853    2618.8396   -446.52208    36.440536    22.181903    290.56785 
  327000       327000     296.5734    92391.171    3863.0253   0.96344716   -162.46952    3151.7551    3761.7782    3430.3097     4396.988   -1661.0046    1237.8634   -175.40595     296.5734 
  328000       328000    288.51174    92391.171    5648.5865   0.96344716   -150.99057    3073.1445    5481.2541    7271.5212    4192.9843   -1552.7534   -776.58899   -998.00991    288.51174 
  329000       329000    298.15073    92391.171    5812.4848   0.96344716   -106.77075    3225.0807    5974.4024    5780.6265    5682.4255   -1697.9077   -489.58369   -467.99207    298.15073 
  330000       330000    289.12217    92391.171     4180.215   0.96344716   -164.99396    3065.9627     3553.071    4601.5636    4386.0103    -2057.614    990.27638    706.33303    289.12217 
  331000       331000    296.74762    92391.171    4968.8098   0.96344716   -165.73209    3150.4395    4330.2855    6024.8998     4551.244   -1560.4577   -132.19237    733.94406    296.74762 
  332000       332000     290.0556    92391.171    2950.9491   0.96344716   -105.85847    3135.5294    1789.1641    3586.8488    3476.8344    -901.5926   -168.30741   -34.992605     290.0556 
  333000       333000    290.82177    92391.171    3817.4375   0.96344716   -174.59174    3075.3581    4190.2703    4040.8796    3221.1626   -1056.3509    51.077322   -916.84013    290.82177 
  334000       334000    290.78266    92391.171    4737.6523   0.96344716    7.5705632    3257.0833    5800.5845     5150.397    3261.9754   -481.11979    982.18225   -214.96272    290.78266 
  335000       335000    290.20512    92391.171    4578.2826   0.96344716    -215.4217     3027.637    4651.5941    4388.6492    4694.6044   -1441.3143    1051.9078    413.35324    290.20512 
  336000       336000    300.44731    92391.171    5089.4687   0.96344716   -107.49616    3250.0197    4671.9788    4763.3309    5833.0963   -1388.0232   -260.79796    354.05726    300.44731 
  337000       337000    288.57401    92391.171    4973.1495   0.96344716   -147.22026    3077.6107    4558.2197    5088.8893    5272.3396   -710.89598    912.48098    515.56691    288.57401 
  338000       338000    292.51124    92391.171     3845.555   0.96344716   -137.03036    3131.7994    4753.8049    3104.7141    3678.1458   -570.60967   -247.87714   -255.58459    292.51124 
  339000       339000     291.7003    92391.171    4537.0849   0.96344716   -81.813389    3177.9541    5368.2735    4094.2015    4148.7796   -1290.1802      588.319    -767.1928     291.7003 
  340000       340000    287.83613    92391.171    3355.7262   0.96344716   -148.99025    3067.5948    2075.7776    3550.8874    4440.5135   -1699.3845    1253.1321   -154.28159    287.83613 
  341000       341000    291.11726    92391.171     5141.976   0.96344716    -86.27779    3166.9742    4409.5736    6456.6137    4559.7407   -390.66113   -626.90802   -867.35237    291.11726 
  342000       342000    294.29677    92391.171    4835.0414   0.96344716    -177.0281     3111.755    4535.6931    5605.3494    4364.0817   -227.90175   -818.32097    684.41618    294.29677 
  343000       343000    290.77218    92391.171    4455.3383   0.96344716   -150.96311    3098.4326    4537.6627    4662.1242    4166.2281   -1140.5109   -704.33229     700.9061    290.77218 
  344000       344000    295.24892    92391.171    4794.6861   0.96344716   -187.11975    3112.3037     4468.137    5428.6068    4487.3145   -1322.8926   -502.66311     -151.292    295.24892 
  345000       345000    290.37672    92391.171    6133.3178   0.96344716    -89.23874    3155.7376    6301.7705    6262.1917    5835.9912   -967.41757   -198.31126    343.79271    290.37672 
  346000       346000    294.16825    92391.171    5493.1595   0.96344716   -166.24475    3121.1022     6212.418    6157.9516    4109.1089   -1822.5189    158.56839    53.716291    294.16825 
  347000       347000    295.05697    92391.171    5130.8124   0.96344716   -171.65561    3125.6228    3614.4481    6263.3645    5514.6248   -303.38367    -581.9733    308.47713    295.05697 
  348000       348000    296.66952    92391.171    4735.1653   0.96344716   -171.91479     3143.384    4947.7798    4914.4862    4343.2299   -1113.7425    497.11171    -472.8867    296.66952 
  349000       349000    290.73483    92391.171    5041.9556   0.96344716   -126.04349    3122.9348    4882.7611    6138.0185    4105.0873   -745.62015    715.61591    154.34625    290.73483 
  350000       350000    292.17283    92391.171     4802.229   0.96344716   -147.88656    3117.1614    3161.4469    5466.3088    5778.9312    -1553.026    330.80002    -509.8147    292.17283 
  351000       351000    287.38108    92391.171     4532.386   0.96344716   -134.55839    3076.9415    3562.9936    4708.9782    5325.1863   -1339.0481   -780.66199   -1019.1186    287.38108 
  352000       352000    291.99589    92391.171    4637.1219   0.96344716   -110.77515    3152.2955    4410.0081    4165.2721    5336.0857   -1209.4232    33.038132    408.91372    291.99589 
  353000       353000    290.90811    92391.171    5407.5083   0.96344716   -134.66506    3116.2496    6701.2236    4086.2099    5435.0915   -796.46522   -44.651561   -451.21023    290.90811 
  354000       354000    289.23016    92391.171    3452.9533   0.96344716    -68.13427    3164.0292    4044.0801    2617.3362    3697.4436   -985.35587    374.90762    106.32268    289.23016 
  355000       355000    298.12003    92391.171    4221.8741   0.96344716   -131.06315    3200.4452    4872.4304    3913.4985    3879.6935   -307.98432    119.28688    526.90623    298.12003 
  356000       356000    292.07732    92391.171    3447.3964   0.96344716   -168.64821    3095.3325     3044.143    4430.1712    2867.8751   -401.12594    491.08235   -724.70902    292.07732 
  357000       357000    298.12708    92391.171    4088.2101   0.96344716   -198.83411     3132.753    4836.8097     4342.848    3084.9727    1169.9637    -169.7514     491.1206    298.12708 
  358000       358000    288.52816    92391.171    5431.1831   0.96344716    -165.2813    3059.0373    4716.7714    5882.8474    5693.9304   -1014.5658    340.01649    1010.8031    288.52816 
  359000       359000    294.54203    92391.171    4135.7827   0.96344716   -107.03453    3184.4894    2986.3909     4161.774    5259.1833   -191.12379   -558.68096    1321.6551    294.54203 
  360000       360000    288.71078    92391.171    4740.7819   0.96344716   -143.82281    3082.5366    5021.9807    4906.3805    4293.9846   -392.89558    646.64842   -235.58268    288.71078 
  361000       361000    290.04711    92391.171    4954.6314   0.96344716   -144.04093     3097.252    5547.9438    4476.2678    4839.6827    230.01329    1096.8127   -669.01419    290.04711 
  362000       362000    293.73256    92391.171     4088.366   0.96344716   -234.23944    3048.2386    4881.3225    3364.7436     4019.032    -991.4631    1110.4706   -58.691097    293.73256 
  363000       363000     303.9531    92391.171    4462.8909   0.96344716   -114.86077    3281.8324    4006.1822    5787.8414    3594.6492   -217.06744    869.98427    594.24091     303.9531 
  364000       364000    288.19414    92391.171    4072.3775   0.96344716   -207.96679    3012.6191     4343.925    4073.2178    3799.9896   -1122.0845    1639.4477    96.508091    288.19414 
  365000       365000    298.54336    92391.171    5569.5618   0.96344716    -145.5828    3190.6563    5109.4864    7039.3198    4559.8791   -576.84125     365.1951    920.39695    298.54336 
  366000       366000    291.14461    92391.171     4689.929   0.96344716   -172.35573    3081.2019    4863.7503    4858.6648    4347.3717   -632.49541    214.10869    437.15348    291.14461 
  367000       367000    291.99128    92391.171      3918.93   0.96344716   -171.43721    3091.5819     3634.927    4294.4535    3827.4095   -1379.2177   -283.59437     369.8846    291.99128 
  368000       368000    295.81359    92391.171    4325.6277   0.96344716   -134.83372    3170.8999    4584.3081    4468.9887    3923.5864   -393.83854    635.62077   -588.83706    295.81359 
  369000       369000    293.07245    92391.171     3750.915   0.96344716   -181.15244    3093.9488      3908.18    3424.7457    3919.8191   -388.19083    1252.4739    504.27816    293.07245 
  370000       370000    299.34566    92391.171    4041.6238   0.96344716   -169.16327    3176.0416    3969.3145    3761.9319    4393.6252    -1237.729    324.51385   -590.90511    299.34566 
  371000       371000    290.73599    92391.171    6096.8703   0.96344716   -125.87006    3123.1212    6983.4655    5399.7743    5907.3712   -1717.9569    1586.0586   -177.44888    290.73599 
  372000       372000    293.17115    92391.171    4424.1695   0.96344716    -219.4066    3056.7977    5223.8942    3435.0171    4613.5972   -1405.6301    474.54132    1318.1006    293.17115 
  373000       373000    293.77887    92391.171    3952.2722   0.96344716   -175.66862    3107.3269    3671.8225     4162.261     4022.733   -1035.5455   -574.79346   -93.398971    293.77887 
  374000       374000    289.41873    92391.171    5449.5898   0.96344716   -163.60491    3070.6658    5188.4524    5726.2122    5434.1047   -630.12031    589.00731   -539.81252    289.41873 
  375000       375000    291.79898    92391.171    4992.9484   0.96344716   -134.04908    3126.8211    5856.8379    4491.6869    4630.3203   -709.36649   -133.78559    468.57377    291.79898 
  376000       376000    291.89006    92391.171     4153.113   0.96344716   -106.02686    3155.8612     3283.999    3951.8508    5223.4894   -216.51996    532.93888    121.91088    291.89006 
  377000       377000    290.37215    92391.171    5270.2868   0.96344716   -94.959548    3149.9657    5234.9517    4322.2249    6253.6837   -545.29304    316.03998   -280.84257    290.37215 
  378000       378000    293.60161    92391.171    4943.2479   0.96344716   -213.53626    3067.4784    3863.9382    5457.8145    5507.9911   -361.47025    980.46487    287.57349    293.60161 
  379000       379000    293.04186    92391.171    5571.7957   0.96344716   -71.147579    3203.6119    5962.8591    5762.7127    4989.8153   -1159.0492    1284.7874   -553.12282    293.04186 
  380000       380000    284.28732    92391.171    4403.1895   0.96344716   -158.46704    3018.4599    3609.6472      4430.79    5169.1312   -374.95813    773.86579    46.292427    284.28732 
  381000       381000    293.54229    92391.171    4468.9975   0.96344716    -90.64372    3189.7081    3318.2337     5593.883    4494.8756   -282.93126    99.190823   -936.98098    293.54229 
  382000       382000     291.2271    92391.171    3753.3575   0.96344716   -213.98875    3040.4906    3314.2717    3373.7225    4572.0784   -2163.9633    453.22781    639.45479     291.2271 
  383000       383000    298.36064    92391.171    3638.1591   0.96344716   -158.38993    3175.8072    2788.3211    3755.6865    4370.4697   -1166.6782   -319.67328   -722.10999    298.36064 
  384000       384000    288.78447    92391.171      4163.03   0.96344716   -109.08442    3118.0985     5216.196    4020.3902     3252.504   -954.04522   -25.970446    298.15876    288.78447 
  385000       385000    290.88604    92391.171    3648.7474   0.96344716   -165.11749    3085.5506    3903.3742    2356.0181    4686.8498   -1936.9282   -613.64989   -98.869843    290.88604 
  386000       386000    293.25638    92391.171    4415.4449   0.96344716   -215.34046    3061.8163    4871.8886    4801.8811     3572.565   -1116.6648   -59.299139    926.44367    293.25638 
  387000       387000    295.58024    92391.171    4105.8787   0.96344716   -36.769459    3266.3565    3406.7132    5091.8214    3819.1015   -181.04435   -146.38522    1000.1183    295.58024 
  388000       388000     288.0677    92391.171    4042.1029   0.96344716   -161.85691     3057.316    3365.6816    3914.7792    4845.8479    792.60696    494.94863   -787.28982     288.0677 
  389000       389000    291.09789    92391.171    5978.0466   0.96344716   -144.61824    3108.4173     5704.085    7165.6698    5064.3851   -1023.3154     480.9207    875.76338    291.09789 
  390000       390000     300.1629    92391.171    4029.2115   0.96344716   -170.16211    3184.1754    3806.9509    3622.4559    4658.2276   -680.25708   -1022.1597   -433.28044     300.1629 
  391000       391000    288.85315    92391.171    6232.3169   0.96344716   -174.81636    3053.1341    6999.3385    5999.8987    5697.7136   -259.77344    453.56212    -148.9539    288.85315 
  392000       392000    295.47565    92391.171    4576.5308   0.96344716   -134.40974    3167.5475    4462.1141     6003.677    3263.8012   -148.98299    351.57697    595.27245    295.47565 
  393000       393000    288.94019    92391.171    4738.2519   0.96344716   -133.20494    3095.7181    4833.0837    5307.5061    4074.1658   -1168.5632    -173.9156   -859.69963    288.94019 
  394000       394000    292.69051    92391.171    5043.8702   0.96344716    -126.8775    3143.9556    6078.8869    4598.3368    4454.3871    -358.7456   -155.10074    125.67249    292.69051 
  395000       395000     293.7548    92391.171    5234.5231   0.96344716   -189.73747    3092.9891    5186.0595    5499.0844    5018.4255   -1179.7203     1326.338     677.3061     293.7548 
  396000       396000    294.51619    92391.171    5737.3544   0.96344716   -152.93875    3138.2965    6095.9634    5898.0899    5218.0097   -1026.9492   -449.52391    39.588854    294.51619 
  397000       397000    287.99641    92391.171    4776.4104   0.96344716   -152.93921     3065.437     4039.378    5494.4176    4795.4355   -894.11084    89.911104     279.9542    287.99641 
  398000       398000    291.35131    92391.171    4416.6357   0.96344716   -86.106558    3169.7609    5059.4773    5352.3586    2838.0712   -913.55593    976.97204   -146.68352    291.35131 
  399000       399000    289.41974    92391.171    4264.6727   0.96344716   -158.76283    3075.5192    4527.2767    3668.6738    4598.0675   -201.51531    -140.9077    700.29139    289.41974 
  400000       400000    290.53794    92391.171    4475.9681   0.96344716   -127.59307     3119.185     4392.464    5203.4908    3831.9495   -546.46335    1542.9331   -999.74408    290.53794 
  401000       401000    294.42491    92391.171    5479.4436   0.96344716   -187.05029    3103.1648    5109.4272    6729.1958    4599.7079   -1104.3849    453.55584    982.61882    294.42491 
  402000       402000    292.52818    92391.171    5196.5972   0.96344716   -119.11448    3149.9046    5811.8055    5127.7513    4650.2347   -301.56385    267.26638    325.32443    292.52818 
  403000       403000    293.70086    92391.171    4930.5903   0.96344716    -142.7221    3139.4017    4826.0273    4555.1369    5410.6065   -1466.6759   -531.73925    911.49032    293.70086 
  404000       404000    290.89355    92391.171    3843.9377   0.96344716   -161.75385    3088.9982    4287.3298    4646.6836    2597.7997    323.32251    136.54429   -854.02306    290.89355 
  405000       405000    292.38281    92391.171    3668.3704   0.96344716   -112.04561     3155.349     3208.116     3429.141    4367.8541   -796.15789    1682.4833    -1274.241    292.38281 
  406000       406000    296.85854    92391.171    5603.6841   0.96344716   -186.97843    3130.4327    6968.9074    3930.4332    5911.7116   -731.61246     511.3403    412.92156    296.85854 
  407000       407000    287.48925    92391.171    4256.0856   0.96344716     -152.627    3060.0817    4069.3346    5981.2629    2717.6591   -1352.7951   -420.01801   -246.61249    287.48925 
  408000       408000    293.00261    92391.171    3939.5822   0.96344716   -149.90576    3124.4151      4473.86    3837.3798    3507.5067    312.11212    362.02796   -610.11902    293.00261 
  409000       409000    292.90121    92391.171    3336.3165   0.96344716   -209.52244    3063.6653    3463.8214    3235.4119    3309.7162   -1900.4589    263.70263    296.57286    292.90121 
  410000       410000    290.69772    92391.171    3905.3683   0.96344716   -133.34894    3115.2147     3833.472    4279.6845    3602.9486    -449.0064   -44.274019   -85.227028    290.69772 
[...]
100050000   1.0005e+08    296.33964    92391.171    4288.0205   0.96344716   -123.54924    3188.0631    4236.2183    3999.3549    4628.4882   -890.51415    511.25248   -77.131521    296.34979 
100060000   1.0006e+08     294.9678    92391.171    4192.4587   0.96344716   -55.341978      3240.94    3759.1289     4098.559    4719.6882   -1095.6726    311.16975    48.418939    294.97901 
100070000   1.0007e+08    295.60133    92391.171    5067.8615   0.96344716   -57.553808    3245.8079    5872.6768    5031.0943    4299.8133   -941.78618    767.58529    403.30942    295.60383 
100080000   1.0008e+08    294.50293    92391.171    4562.4902   0.96344716   -107.87717    3183.2098      3881.34     5407.638    4398.4925   -1415.5339    266.21278    501.73447    294.50348 
100090000   1.0009e+08    292.02403    92391.171    4402.2764   0.96344716     2.874085    3266.2593     2604.837    4476.7126    6125.2797   -208.45871   -1042.1943   -562.44071    292.02226 
100100000    1.001e+08    287.71145    92391.171    5519.4873   0.96344716   -30.449181    3184.7427    5095.0196    5215.0611    6248.3813   -493.99735   -392.80907   -742.72787    287.70518 
100110000   1.0011e+08    287.00768    92391.171    4840.3124   0.96344716   -13.285371    3194.0418    3710.0404    4388.2654    6422.6316   -1011.1349    468.40971    476.78269    287.02485 
100120000   1.0012e+08    293.15284    92391.171    4248.0464   0.96344716   -166.56196    3109.4377    2829.9043    6300.7275    3613.5074   -603.28878    379.64879   -937.71193      293.143 
100130000   1.0013e+08    289.50903    92391.171    4876.9846   0.96344716   -116.35187     3118.928     3908.579    5305.3069    5417.0679   -1325.6897     258.4013   -1053.7721    289.51752 
100140000   1.0014e+08    295.39169    92391.171    5275.8027   0.96344716    14.635701    3315.6546     4305.977    5584.3546    5937.0766    -1235.819    934.77937    1138.8539    295.39039 
100150000   1.0015e+08       292.08    92391.171    6288.1442   0.96344716   -45.120263    3218.8903    5898.8277    6692.2033    6273.4015     -273.061    709.73406     178.6455     292.0835 
100160000   1.0016e+08    292.50822    92391.171    3490.8582   0.96344716   -17.739561    3251.0564    2982.2546     5377.168    2113.1521    194.69094    864.29833    653.23529     292.4949 
100170000   1.0017e+08    296.33437    92391.171     4474.998   0.96344716   -30.682882    3280.8705    3240.2317    5219.2558    4965.5065   -1769.9323   -637.81559    342.67435    296.32019 
100180000   1.0018e+08    291.04613    92391.171     3966.437   0.96344716   -66.376449    3186.0806    2553.2174    3765.3556    5580.7381    -800.2325   -682.21326   -41.961257    291.05677 
100190000   1.0019e+08    295.40033    92391.171    5512.4624   0.96344716   -84.186663    3216.9289    6169.9966    5439.4717    4927.9189   -1658.6479   -214.74827    696.48731    295.40861 
100200000    1.002e+08    296.51636    92391.171    4550.6848   0.96344716   -28.899708    3284.6875    3655.2476    5467.1654    4529.6415    389.82001   -899.28694   -199.55379    296.52225 
100210000   1.0021e+08    298.84946    92391.171    4665.6127   0.96344716   -87.161624    3252.4981    4315.9424    4734.1648    4946.7308   -396.23116    -608.5176   -739.96321    298.83602 
100220000   1.0022e+08    294.28797    92391.171    2855.4552   0.96344716   -102.08517    3186.5996    966.24034    3981.4056    3618.7198    -1069.036   -187.73399    -374.5463    294.28483 
100230000   1.0023e+08       296.04    92391.171    5016.9151   0.96344716    -46.50961    3261.7542    3818.7688    6031.2621    5200.7143   -1066.3462   -936.30619    179.26406    296.05887 
100240000   1.0024e+08    292.35753    92391.171    4521.7653   0.96344716   -80.210696    3186.9013    5101.3135    5298.7616    3165.2208   -1937.3034    260.05327    78.731544    292.33404 
100250000   1.0025e+08    290.47783    92391.171    5043.5865   0.96344716   -14.994272     3231.112      3905.99    6203.2414     5021.528    -1111.212   -494.03717     494.5422    290.47462 
100260000   1.0026e+08    289.14558    92391.171    4434.3409   0.96344716   -74.670696    3156.5476    5495.3835    4201.8384     3605.801   -208.27317   -85.384849   -454.37633    289.15232 
100270000   1.0027e+08     293.5615    92391.171    3146.7225   0.96344716   -110.33307    3170.2334    1422.4447    4006.9131    4010.8099    -540.2131   -986.92286     772.1436    293.54767 
100280000   1.0028e+08    287.57076    92391.171    4603.1732   0.96344716   -115.55646    3098.0632    4771.0623     4704.386    4334.0713   -1516.4967    790.84204   -18.367619    287.56321 
100290000   1.0029e+08     292.0357    92391.171    3750.6515   0.96344716    1.8833394     3265.399     3017.925    5113.7934    3120.2362   -639.39786   -215.64034    1418.9686    292.03934 
100300000    1.003e+08    291.69905    92391.171    5375.7923   0.96344716   -54.932584    3204.8208    6975.5394    4524.6927    4627.1448   -312.66226   -72.286079   -139.65707    291.69372 
100310000   1.0031e+08    295.04225    92391.171    4010.1295   0.96344716   -31.094967     3266.019    2522.0615    4288.6716    5219.6553   -353.83929    208.03384    413.96219    295.04178 
100320000   1.0032e+08    293.23793    92391.171    4917.2774   0.96344716   0.72473297    3277.6753    3599.0312    5775.9222    5376.8787   -43.027449    277.54023     472.2171    293.23813 
100330000   1.0033e+08    296.15831    92391.171    4599.7889   0.96344716   -83.884865    3225.7011    4438.4511    5104.1496     4256.766   -1050.9607   -150.71463    1315.6381    296.17276 
100340000   1.0034e+08    290.33791    92391.171    3675.4545   0.96344716   -68.329508    3176.2132     3747.336    3470.9295    3808.0979    -959.8497   -1634.8496     142.7418    290.35277 
100350000   1.0035e+08    290.57703    92391.171    4487.1913   0.96344716   -122.54256    3124.6723    4931.7751    4697.6365    3832.1622   -598.37849    15.834189     747.5078    290.57318 
100360000   1.0036e+08    291.15768    92391.171    5220.5344   0.96344716    -29.42229    3224.2813    4383.8657    5779.9019    5497.8356   -1265.7883    121.00977     777.7186    291.15866 
100370000   1.0037e+08    288.67651    92391.171    5596.4376   0.96344716   -75.862132    3150.1143    5822.3179    5699.8794    5267.1155   -886.21618   -1107.9599   -334.45285    288.64939 
100380000   1.0038e+08    289.27105    92391.171      4634.59   0.96344716   -60.697636    3171.9228    3919.5336    5039.0655     4945.171   -562.07688    19.992232    244.85443    289.27904 
100390000   1.0039e+08    293.92746    92391.171    4146.8991   0.96344716    39.711033    3324.3671    3225.0464    5147.4663    4068.1846   -979.42338   -899.99238    547.95873    293.93888 
100400000    1.004e+08     290.2806    92391.171     4028.379   0.96344716   -25.564323    3218.3379    2900.7459    4603.4796    4580.9115   -2078.8708    563.55873    884.94394    290.28746 
100410000   1.0041e+08    289.80251    92391.171    5053.2208   0.96344716   -50.270319    3188.2892    5999.7576    4524.9834    4634.9215   -1710.6712    1012.7601   -304.91135    289.79249 
100420000   1.0042e+08    292.64519    92391.171    5535.2003   0.96344716   -10.580441    3259.7463    4202.2563    5381.4481    7021.8966   -1212.5163   -454.75383    330.51914    292.64108 
100430000   1.0043e+08    298.49316    92391.171    4026.0522   0.96344716   -35.832528    3299.8455    4160.0148    3571.4789     4346.663   -1341.4325    815.90425   -128.63914    298.49067 
100440000   1.0044e+08    289.53308    92391.171    5143.4621   0.96344716   -44.216256    3191.3324    4110.9282    5369.1329    5950.3252   -1659.4371   -450.53767   -493.73166    289.55867 
100450000   1.0045e+08    289.92729    92391.171    4853.1169   0.96344716   -19.829231    3220.1247    4839.9366    4960.8239    4758.5902   -912.48948   -632.85389     -198.759    289.92739 
100460000   1.0046e+08    292.20523    92391.171    5417.7636   0.96344716   -74.305092    3191.1049    4529.2921    5765.8024    5958.1962   -618.14143    568.66588    324.29945    292.19788 
100470000   1.0047e+08    292.67977    92391.171    4575.7151   0.96344716   0.84624744    3271.5593    5472.6634     4733.597     3520.885   -1408.6788    -109.6746   -44.403724      292.683 
100480000   1.0048e+08    297.18839    92391.171    5460.4494   0.96344716    -26.69325    3294.4039    5551.5886    6185.1092    4644.6505   -407.27891    -757.6628   -798.17211    297.18676 
100490000   1.0049e+08    294.33771    92391.171    4605.2072   0.96344716   -62.050595      3227.19    3553.2712    5582.8037    4679.5467   -208.23731   -1662.4756    230.51714    294.34857 
100500000    1.005e+08    291.16289    92391.171    4755.9099   0.96344716   -60.387173    3193.3747    3808.5998    6188.9494    4270.1807   -332.36576    1000.0252    268.92671    291.14815 
100510000   1.0051e+08    293.90645    92391.171    4045.7884   0.96344716    -92.47559    3191.9457    4428.7352    3937.1331    3771.4969    437.18578    99.128941   -718.60332    293.90693 
100520000   1.0052e+08    289.78937    92391.171    4427.4858   0.96344716    20.478789    3258.8915    3993.6003    5789.3308    3499.5263   -228.00131    276.15014    93.391204    289.81244 
100530000   1.0053e+08    291.26853    92391.171    5125.6332   0.96344716   -14.616088    3240.3263    4543.9146    5177.7571    5655.2281   -562.46137    67.412201   -82.592185    291.28212 
100540000   1.0054e+08    291.46301    92391.171     5588.834   0.96344716     15.61325    3272.7289    5991.8371    5631.4938     5143.171   -1288.6101   -86.479809     229.7387    291.46824 
100550000   1.0055e+08    295.60819    92391.171    4882.0785   0.96344716   -81.218912    3222.2194    4997.7361    6149.0794      3499.42   -66.633047   -471.22497    1132.2411    295.64315 
100560000   1.0056e+08     290.4456    92391.171     4069.557   0.96344716   -58.496709    3187.2494    4884.3298    4334.9271    2989.4141   -1298.5501    550.96839   -823.12399    290.44372 
100570000   1.0057e+08    297.10086    92391.171    4548.6201   0.96344716   -126.80926    3193.3097    4066.8205    5059.7664    4519.2736   -1405.7963   -948.98522    412.21941    297.10953 
100580000   1.0058e+08    292.42495    92391.171    5096.6489   0.96344716   -21.482291    3246.3832    5866.7739    4819.8733    4603.2997   -2073.4334   -374.04781    941.04237    292.44158 
100590000   1.0059e+08    295.11106    92391.171    4559.3127   0.96344716   -99.499304    3198.3836    4766.3956    4359.1508    4552.3917   -1493.9401    611.97287    1900.5847     295.1041 
100600000    1.006e+08    286.81668    92391.171     4338.025   0.96344716   -63.539311    3141.6534    3654.4894    5232.7624    4126.8232   -1139.6016   -412.65556   -883.14457    286.82321 
100610000   1.0061e+08    293.01479    92391.171    5204.7654   0.96344716   -25.449328    3249.0077    3882.8269    6038.3952    5693.0742   -519.02077     833.6069   -801.24781    293.02686 
100620000   1.0062e+08    294.36251    92391.171    4706.1979   0.96344716   -40.081985    3249.4358    4362.9852    4006.5874    5749.0212    -2283.663   -892.73852   -620.11378     294.3512 
100630000   1.0063e+08    295.07593    92391.171    3879.9355   0.96344716   -147.17284    3150.3175    2804.6992    4093.2018    4741.9054   -887.46283    966.77632    1167.8742    295.08398 
100640000   1.0064e+08    288.00108    92391.171    5033.6516   0.96344716   -30.255895    3188.1726    3594.3415    5667.9922    5838.6211   -1774.0727    474.46196   -289.11073    288.02744 
100650000   1.0065e+08    299.03676    92391.171    5113.3937   0.96344716   -29.276385    3312.4764    4151.3723    5446.5739    5742.2348   -698.22737   -215.32912   -949.05652    299.03589 
100660000   1.0066e+08    303.17104    92391.171    5217.5559   0.96344716   -26.682964    3361.2706    4347.9635     4996.962    6307.7423   -1322.0325    362.55194    1982.6156    303.18669 
100670000   1.0067e+08    283.57541    92391.171    6461.4099   0.96344716   -59.862804    3109.1086    6362.0318    6922.9365    6099.2614   -315.75369    590.37579     105.7131    283.59392 
100680000   1.0068e+08    296.06685    92391.171    4544.7033   0.96344716   -67.604304    3240.9596    5833.4439    4912.4935    2888.1726   -436.26341    -641.1627    589.61443    296.06191 
100690000   1.0069e+08    295.08166    92391.171    3305.8109   0.96344716   -159.78136     3137.773    3295.2937    4407.3557    2214.7832    20.029702    520.15042   0.16481028    295.07485 
100700000    1.007e+08    299.11769    92391.171    5455.0942   0.96344716   -74.999672    3267.6575    5211.2507     5950.645    5203.3871    -384.7195    617.99007   -111.40951    299.11961 
100710000   1.0071e+08    291.79203    92391.171    4956.6331   0.96344716   -68.198091    3192.5944    3684.7531    6113.1216    5072.0245    712.90521    297.16305   -461.25294    291.77659 
100720000   1.0072e+08    294.75576    92391.171     3353.231   0.96344716   -83.902667    3210.0097    1865.2508    4859.5026    3334.9397   -1126.9663    1489.0704    206.36393     294.7603 
100730000   1.0073e+08    292.85748    92391.171    4043.3415   0.96344716   -63.239953    3209.4591    2831.5241    4082.6749    5215.8256   -1264.2269   -953.21592    347.53744    292.86411 
100740000   1.0074e+08    294.21774    92391.171    5144.6544   0.96344716   -81.074374    3206.8256    5352.6998    5670.8526    4410.4107   -905.03904   -566.50903     160.6278    294.21526 
100750000   1.0075e+08    295.69038    92391.171    4726.6364   0.96344716   -22.935959    3281.4209    4143.1182    5031.4877    5005.3031   -1097.8286    395.60364    157.48183    295.69893 
100760000   1.0076e+08    297.47049    92391.171    3562.7536   0.96344716    -23.90554    3300.3441     2253.691    4646.3645    3788.2053   -741.13586    239.96451    218.65681    297.47499 
100770000   1.0077e+08    291.49654    92391.171    5504.9982   0.96344716   -10.303984    3247.1864    5720.4695    5620.9214    5173.6038   -682.30358    392.43226    874.76117    291.49012 
100780000   1.0078e+08    299.42678    92391.171    5559.8341   0.96344716   -18.318588    3327.7927    6995.3455    5167.1959     4516.961    -912.6448     529.2475   -34.301797    299.43103 
100790000   1.0079e+08    291.58063    92391.171    4485.8954   0.96344716   -44.101802    3214.3284    4212.4053    4909.4049    4335.8759   -422.25296   -147.45983    101.82352    291.59669 
100800000    1.008e+08    297.83499    92391.171    4459.8594   0.96344716   -55.558068    3272.7649    3371.7133    4790.5821    5217.2829   -817.79066   -44.360046   -37.784221    297.84009 
100810000   1.0081e+08     296.7491    92391.171    4797.7027   0.96344716    3.2643451    3319.4524    3829.2977    5815.8529    4747.9575   -766.88147    63.637589   -47.909102    296.74072 
100820000   1.0082e+08    282.70615    92391.171     4045.828   0.96344716   -58.113343     3101.144    3551.2604    3908.4674    4677.7562   -1003.1044    346.87536   -401.58824     282.7031 
100830000   1.0083e+08    296.30455    92391.171     4827.452   0.96344716    -37.91686    3273.3034    5005.5354    4771.0156     4705.805   -1479.4639   -525.78422   -139.49908    296.29289 
100840000   1.0084e+08    294.21538    92391.171    3849.1801   0.96344716   -18.705127    3269.1685    2707.9382    5254.4277    3585.1744   -813.15168    272.23201   -246.91928    294.21237 
100850000   1.0085e+08    294.63579    92391.171    4350.9517   0.96344716   -115.34844    3177.2232    2499.9139    5784.2557    4768.6855   -1262.4533   -67.590278   -529.09877    294.63145 
100860000   1.0086e+08    291.98812    92391.171    4556.0328   0.96344716   -22.370224    3240.6136    2470.9908    4997.4314     6199.676   -1318.0622   -441.85539    1007.2347    291.98931 
100870000   1.0087e+08    295.62233    92391.171     2125.921   0.96344716    6.6890761    3310.2855    669.42401    3715.0115    1993.3275   -1459.4837   -29.232752    203.07361    295.60581 
100880000   1.0088e+08    288.37044    92391.171    5644.0507   0.96344716   -102.37525    3120.1809    5380.1151    5488.1905    6063.8466   -1083.4287    257.55937    32.679151    288.38171 
100890000   1.0089e+08    296.70395    92391.171    4686.8151   0.96344716   -33.552766    3282.1307    4027.0268    4911.7197    5121.6987   -837.46224     898.3076    762.57115    296.71548 
100900000    1.009e+08    297.52912    92391.171    3336.5331   0.96344716    -34.03748    3290.8673    2613.7125    2793.3435    4602.5432    -988.0692    64.383776   -255.11549     297.5349 
100910000   1.0091e+08    300.25702    92391.171    4303.8158   0.96344716   -23.244888    3332.1444    4989.7487    4012.8056    3908.8932   -590.31461   -941.15772   -183.11604    300.25393 
100920000   1.0092e+08    292.98553    92391.171    4053.2202   0.96344716   -111.97321   Generated thermo.dat
Done!
stress
average  897.627
square average  807311
number of blocks  100
variance  3.97085490921035794019
pxx
average  4038.17
square average  1.63127*10^07
number of blocks  100
variance  7.67010501883774730887
pyy
average  4929.56
square average  2.43055*10^07
number of blocks  100
variance  7.02723729498300064342
pzz
average  4638.62
square average  2.15211*10^07
number of blocks  100
variance  6.56086549168629123176
pressure, stress.strain, ktensor, virial are all concatenated
averages computed will all accumulated data until now
 3162.1567    4296.4646    5204.9739     2658.222   -383.25812   -330.08693   -1347.3142    292.97467 
100930000   1.0093e+08     303.4671    92391.171    4741.8978   0.96344716   -119.93118     3271.331    4307.0665    6046.7826    3871.8443   -257.72058    66.487597   -252.35243    303.48002 
100940000   1.0094e+08    292.24902    92391.171    5808.6242   0.96344716   -6.3858056    3259.5136    4487.7951    7378.5512    5559.5264   -397.48517   -225.09189   -617.61972    292.25607 
100950000   1.0095e+08    300.32187    92391.171    4668.9133   0.96344716   -6.4611999    3349.6528    5586.9202    4888.8579    3530.9618   -842.81085   -399.59989    321.74189    300.33313 
100960000   1.0096e+08    288.17167    92391.171    4574.9839   0.96344716   -25.680181    3194.6546     4708.296    4737.9061    4278.7495   -875.07961    -348.1014    415.65335    288.17008 
100970000   1.0097e+08    288.23382    92391.171    3793.4429   0.96344716   -139.72526     3081.304    2792.7455    3266.9396    5320.6435   -893.65274   -314.19374   -1073.9708    288.22945 
100980000   1.0098e+08    288.94416    92391.171    4807.6763   0.96344716    1.8275284     3230.795     4894.077    4911.4984    4617.4534   -686.04108    72.388251   -724.24774     288.9498 
100990000   1.0099e+08    296.19235    92391.171    4116.2944   0.96344716   -16.401821    3293.5645    3552.3529    5071.8458    3724.6846   -871.05189    543.65858    388.33608    296.20902 
101000000     1.01e+08    291.09834    92391.171    5315.9509   0.96344716    -40.68253    3212.3579    4673.5135    5633.2582    5641.0809   -1085.5477    163.14279    848.27509    291.09235 
Loop time of 15408.6 on 48 procs for 50000000 steps with 3750 atoms

Pair  time (%) = 5615.77 (36.4456)
Bond  time (%) = 973.526 (6.31805)
Neigh time (%) = 2823.93 (18.3269)
Comm  time (%) = 4355.14 (28.2643)
Outpt time (%) = 0.464503 (0.00301456)
Other time (%) = 1639.81 (10.6422)

Nlocal:    78.125 ave 90 max 66 min
Histogram: 4 1 6 5 5 10 5 5 5 2
Nghost:    1394.19 ave 1419 max 1371 min
Histogram: 2 4 5 9 5 7 8 3 3 2
Neighs:    6991.71 ave 8313 max 5886 min
Histogram: 3 3 7 6 11 7 4 2 4 1

Total # of neighbors = 335602
Ave neighs/atom = 89.4939
Ave special neighs/atom = 6.26667
Neighbor list builds = 5384885
Dangerous builds = 0
System init for write_restart ...

real	519m10.074s
user	0m0.073s
sys	0m0.269s
