ITEM: TIMESTEP
300000000
ITEM: NUMBER OF ATOMS
3750
ITEM: BOX BOUNDS xy xz yz pp pp pp
1.1125092653907163e+02 1.5874907346092786e+02 0.0000000000000000e+00
1.1125092653907163e+02 1.5874907346092786e+02 0.0000000000000000e+00
1.1125092653907163e+02 1.5874907346092786e+02 0.0000000000000000e+00
ITEM: ATOMS id mol type mass xu yu zu vx vy vz 
304 11 1 14.026 14884.3 21352 2677.93 0.00162052 -0.00379899 -0.000378686 
1463 49 4 13.018 14937 21353.5 2680.91 -0.00402273 0.00664898 -0.00172007 
1466 49 1 14.026 14936 21354.4 2678.58 -0.00137514 0.00461983 -0.00294032 
2718 91 4 13.018 16169.6 21392.8 2728.55 -0.000244442 -0.00321787 -0.00571727 
1460 49 1 14.026 14935.3 21350.1 2681.93 -0.00676857 -0.00129206 0.00907882 
2720 91 1 14.026 16168.1 21392.7 2728.84 0.000314123 0.00599002 -0.000566063 
2712 91 4 13.018 16172.2 21397.5 2725.28 -0.00621895 -0.000617495 -0.00727431 
302 11 4 13.018 14883.5 21350.7 2678.05 0.00327124 -0.00656218 0.00219846 
2716 91 1 14.026 16171.2 21394.5 2727.49 -0.00810438 0.00229135 0.00678348 
3329 111 3 15.034 15977.5 21390.7 2677.77 -0.00759172 -0.00236027 0.00516736 
301 11 2 15.034 14883.4 21349.9 2676.75 -0.00260061 0.000387639 -0.000880642 
2719 91 3 15.034 16170.4 21391.5 2728.5 -0.000963091 -0.000718386 -0.00117231 
2717 91 1 14.026 16169.9 21393.7 2727.33 -0.000448255 0.00102006 -0.00249307 
303 11 3 15.034 14884.1 21349.8 2679.15 0.00218642 -0.00358066 -0.00374461 
2715 91 1 14.026 16171.4 21395.3 2726.25 -0.00292315 -0.00172553 0.003759 
1462 49 1 14.026 14935.9 21352.4 2681.1 -0.00480147 -0.00171975 0.00326832 
305 11 1 14.026 14884.1 21352.9 2679.16 -0.00141496 -0.000314524 0.00164538 
2711 91 1 14.026 16173.4 21398.4 2725.13 -0.00566798 -0.000215064 -0.011548 
306 11 1 14.026 14885 21354.2 2679.09 -0.00216626 -0.00160998 -0.00212585 
2713 91 3 15.034 16170.7 21398.1 2725.47 0.00215063 0.00469166 0.0018897 
1461 49 1 14.026 14936.3 21351.2 2681.98 -0.00116988 -0.000262164 0.00155081 
2714 91 1 14.026 16172.5 21396.3 2726.32 -0.000515366 -0.00165837 0.00360144 
2085 70 1 14.026 13796.4 21295.7 2771.98 0.000974323 -0.00276229 -0.00040797 
1465 49 1 14.026 14936.6 21354.7 2679.98 -0.000129033 -0.00102532 -0.00185754 
1455 49 1 14.026 14933.8 21351 2686.71 -0.0100822 0.00510227 0.00509505 
1454 49 1 14.026 14935.2 21351.6 2686.8 -0.002517 -0.000744691 -0.000334074 
2282 77 4 13.018 15743.1 21390.7 2734.08 -0.00518909 -0.00840397 -0.00134355 
1457 49 1 14.026 14934.4 21350.6 2684.22 -0.00308467 -0.00185905 0.00479016 
1458 49 4 13.018 14934 21350.4 2682.73 -0.00693955 0.00514451 -0.00607112 
2281 77 2 15.034 15742.3 21391.8 2733.26 -0.00340197 -0.00173738 0.00433317 
1459 49 3 15.034 14932.9 21349.3 2682.61 -0.00651834 -0.00860182 0.00519628 
2722 91 1 14.026 16166 21391.8 2729.99 -0.00353972 0.00199993 -0.00343489 
1456 49 1 14.026 14933.3 21351.1 2685.22 -0.00410725 0.00435392 -0.000615427 
2721 91 1 14.026 16167.5 21391.9 2730.05 -0.000556814 0.000924088 0.00756428 
2724 91 3 15.034 16165.9 21391.4 2732.56 0.00256796 0.00875173 -0.0103513 
2623 88 3 15.034 15650.9 21395.3 2731.79 -0.00614865 0.00114529 -0.00215122 
1464 49 3 15.034 14937.9 21353.9 2682.15 -0.00638003 0.00229197 0.00327927 
3604 121 1 14.026 16451.6 21400.9 2691.66 -0.0047418 -0.00244565 0.00169585 
815 28 1 14.026 13796.9 21301.1 2740.91 0.00186493 0.00251109 0.00184935 
2383 80 3 15.034 14694.9 21344.5 2692.6 -0.00131092 -0.00649334 0.00879771 
3606 121 1 14.026 16452.5 21401.9 2693.79 -0.000730297 -0.00437651 0.0014571 
818 28 3 15.034 13794.6 21303.3 2740.64 -0.00171364 0.000787349 -0.00231994 
813 28 3 15.034 13796.9 21298.3 2739.1 0.00175938 0.00286524 -0.000722121 
1451 49 1 14.026 14937 21352.2 2688.6 -0.00259732 0.000958834 0.0028212 
1450 49 1 14.026 14937.2 21353.7 2688.22 -0.00410914 0.00444073 -0.0005947 
3605 121 1 14.026 16451.4 21401.9 2692.85 -0.00383905 -0.000897455 1.03317e-05 
2382 80 4 13.018 14695.2 21343.2 2693.17 5.74765e-05 -0.00253178 0.00499339 
1452 49 4 13.018 14935.7 21351.6 2688.31 0.000542112 -0.00150214 0.00490774 
814 28 1 14.026 13797.4 21299.8 2741.28 -0.00407128 -0.005627 -0.00875759 
1453 49 3 15.034 14935.3 21350.3 2689.05 -0.0014096 -0.00210746 0.00176036 
812 28 4 13.018 13797.9 21298.9 2740.13 -0.000466354 0.00204498 0.00156565 
2283 77 3 15.034 15742.9 21390.8 2735.62 -0.0110105 -4.27725e-05 0.00164437 
822 28 4 13.018 13797.7 21305.6 2745.97 -0.0058617 0.0035864 -0.000270611 
1709 57 3 15.034 13509.5 21298.4 2743.71 -0.00385093 0.00311807 0.00795665 
817 28 4 13.018 13795.7 21303.3 2741.7 -0.00421816 0.00273141 -0.000974739 
1708 57 4 13.018 13508.3 21297.6 2744.31 -0.0093803 0.00133567 0.00179509 
1704 57 3 15.034 13507 21302.6 2744.07 -0.00343589 0.000138778 0.00114869 
1710 57 2 15.034 13508.4 21296.1 2744.34 0.00120778 -0.00215667 0.00124509 
1706 57 1 14.026 13507.2 21299.7 2743.52 -0.00273279 -0.00945595 0.00798153 
819 28 1 14.026 13795.4 21304.2 2742.94 -0.0049621 -0.00332401 0.00894626 
821 28 1 14.026 13796.6 21305.4 2744.97 -0.00629081 0.00223358 0.00265768 
3608 121 3 15.034 16451 21401.5 2695.67 -0.00193486 0.00291403 -0.00726216 
1705 57 1 14.026 13505.9 21300.4 2743.46 -0.00308754 -0.001455 0.00403013 
1707 57 1 14.026 13507 21298.2 2743.88 -0.00242465 0.000880092 -0.00349795 
1703 57 4 13.018 13506.1 21301.9 2743.07 0.00175396 0.00189699 -0.00398884 
984 33 3 15.034 14745.6 21348.8 2746.63 -0.00320808 -0.000394955 -0.00545392 
816 28 1 14.026 13796.2 21301.9 2742.07 -0.0104803 -0.00396432 -0.00142709 
2793 94 3 15.034 15745.1 21392.6 2699.74 -0.00382279 0.0047719 0.00656284 
820 28 1 14.026 13796.7 21304.4 2743.82 0.00536737 -0.00061145 -0.0028357 
824 28 1 14.026 13798.4 21307 2745.86 0.00025387 -0.00353936 0.00084636 
2792 94 4 13.018 15744.4 21391.7 2700.83 -0.00151442 -0.00322567 -0.00330174 
2832 95 4 13.018 16072.2 21390.8 2701.72 -0.00898002 0.00801032 -0.00129841 
1179 40 1 14.026 13793.3 21306.4 2653.6 -0.00321908 -0.00144352 0.00025937 
1178 40 3 15.034 13793.4 21304.4 2655.13 0.00526044 0.00052925 -0.0026821 
988 33 4 13.018 14743.1 21348.5 2751.62 -0.00286877 0.0040855 0.000558366 
1175 40 1 14.026 13790.8 21303.4 2653.82 -0.00201743 -0.000861211 -0.00970973 
989 33 3 15.034 14744.1 21348.9 2752.77 0.000628101 0.00139533 0.000106575 
987 33 1 14.026 14743.4 21347.1 2750.99 0.00289038 0.00636572 -0.00173073 
982 33 1 14.026 14746.6 21349.2 2749.1 -0.000922346 0.000319134 -0.00120647 
2833 95 3 15.034 16072.1 21391.9 2700.66 -0.00820823 0.00197821 -0.000300082 
985 33 1 14.026 14744.4 21347.9 2748.64 -0.00469701 -0.00404663 -0.00368768 
1821 61 1 14.026 14652.4 21353.3 2657.27 -0.010952 0.00222043 -0.00338699 
986 33 1 14.026 14744.5 21347.1 2749.96 -0.00447718 0.00346362 -0.00443235 
1820 61 1 14.026 14653.4 21352.7 2656.24 0.000362458 0.00429452 -0.00113606 
2791 94 2 15.034 15743.5 21390.6 2700.14 -0.000965605 -0.000738919 -0.0117703 
981 33 1 14.026 14748.1 21349.3 2748.98 -0.00195298 0.00523034 -0.00323125 
1177 40 4 13.018 13792.5 21305.3 2654.2 -0.00283988 0.0015133 -0.000713284 
990 33 2 15.034 14741.6 21348.6 2752.11 -0.0127488 0.000220995 -0.0039935 
1176 40 1 14.026 13791.6 21304.5 2653.23 -0.00894658 0.00285843 -0.000308435 
983 33 4 13.018 14745.8 21348.3 2748.06 0.00141983 -0.0016191 0.00622321 
1822 61 1 14.026 14651.2 21352.5 2657.78 0.000810955 -0.000767439 -0.00747374 
2796 94 1 14.026 15743.5 21391.1 2703.91 0.00119792 0.00478523 -0.00501096 
823 28 3 15.034 13797.2 21305.3 2747.39 -0.00556088 -0.00361465 -0.00502662 
2834 95 1 14.026 16071 21390.9 2702.7 -0.00218192 0.00331247 0.00225159 
2794 94 1 14.026 15745.2 21391.1 2702.01 -0.00651758 -0.000567242 0.00426763 
1828 61 4 13.018 14646.9 21352.2 2662.57 -0.00714308 -0.00796934 0.000991316 
2245 75 1 14.026 16315.1 21399 2615.48 -0.00637514 0.00553689 -0.00107014 
1826 61 1 14.026 14648.7 21352.7 2660.83 -0.00403329 -0.00358473 0.00348618 
1825 61 1 14.026 14649.7 21352.2 2659.82 -0.000843793 -0.000184753 0.00116285 
1895 64 1 14.026 14412.3 21343.8 2710.66 -0.0108481 0.00375908 -0.0063751 
2247 75 1 14.026 16315.6 21397.7 2613.29 -0.000907255 0.00438505 0.00315789 
1893 64 3 15.034 14410.7 21346.6 2708.38 -0.00224497 -0.00314934 0.00209956 
1892 64 4 13.018 14411.5 21345.9 2709.52 -0.00196474 -0.00259287 -0.00185451 
1830 61 2 15.034 14646.3 21351.1 2663.55 0.00173874 -0.000103026 -0.00152269 
1894 64 1 14.026 14411.2 21344.4 2709.83 -0.0107543 -0.00234861 0.00207705 
1891 64 2 15.034 14411.5 21346.8 2710.76 -0.00183473 0.00123187 0.00241884 
1823 61 4 13.018 14650.4 21353.2 2658.86 -0.00135151 0.000272693 0.00198811 
1653 56 3 15.034 14319.9 21344.8 2660.14 -0.00548462 0.00307607 0.00547536 
1827 61 1 14.026 14648.1 21351.7 2661.71 -0.00178884 -0.00590542 -0.0029266 
1829 61 3 15.034 14645.8 21353 2661.81 -4.30431e-05 -0.00577945 0.00447815 
2798 94 3 15.034 15741.8 21391.3 2705.91 -0.00601607 -0.00743067 -0.00563546 
1824 61 3 15.034 14649.4 21354.3 2658.4 -0.000495358 9.43137e-05 0.000546954 
3267 109 1 14.026 14937.3 21346.9 2713.76 -0.00529075 -0.00610969 0.00751563 
2071 70 2 15.034 13792.6 21296.6 2762.28 -0.00365062 -0.00219737 -0.00647023 
2243 75 4 13.018 16315.4 21399.2 2616.96 0.000296909 0.00324984 -0.00306677 
2310 77 2 15.034 15743.9 21391.2 2715.77 -0.00139256 -0.00034651 0.00429521 
2073 70 3 15.034 13791.2 21298.5 2761.33 -0.00196336 -0.0013586 -0.00129773 
3268 109 4 13.018 14938.3 21346.9 2712.65 0.00297785 0.00324771 0.000599438 
2072 70 4 13.018 13791.4 21297.6 2762.52 -0.00394888 -0.00407987 0.000643883 
2237 75 1 14.026 16312.7 21401.6 2622.19 -0.00223861 -0.00313849 -0.0057742 
3264 109 3 15.034 14933.6 21349.5 2713.93 -0.0038038 -0.00665145 0.00575784 
2075 70 1 14.026 13791.3 21297.1 2765.09 -0.00511752 0.00177385 0.00116058 
3265 109 1 14.026 14935.6 21348.3 2715.08 -0.00541695 -0.000789172 -0.00193619 
2238 75 4 13.018 16313.9 21400.9 2621.46 -0.00955195 0.00111776 0.00314228 
2239 75 3 15.034 16315.3 21401.3 2621.89 -0.00784711 -0.00512316 -0.00359862 
2074 70 1 14.026 13791.4 21298.1 2763.93 -0.00101254 -0.00127636 0.00316907 
3352 112 1 14.026 15311 21353.8 2715.26 -0.00353587 -0.000215469 0.000455667 
3263 109 4 13.018 14934.5 21349.5 2715.18 -0.00253596 -0.00267217 -0.00204969 
3262 109 1 14.026 14933.8 21349.5 2716.52 0.00268159 -0.00281202 0.00344262 
2240 75 1 14.026 16313.6 21401 2619.95 -0.00243313 0.0102416 0.00142806 
3355 112 1 14.026 15312.6 21354.7 2713.46 -0.00542618 -0.00092169 -0.00162446 
3266 109 1 14.026 14936.3 21348.1 2713.74 -0.00733363 -0.00885791 0.0019003 
2242 75 1 14.026 16314.4 21399.9 2617.73 0.00474739 0.00621621 0.00125001 
2241 75 1 14.026 16314.6 21400.1 2619.21 -0.00683307 0.000797584 -0.00687045 
3257 109 1 14.026 14936 21350.5 2719.92 0.00114029 0.000386176 -0.00830255 
2077 70 4 13.018 13791.1 21297 2767.64 -0.00899617 -0.0034573 -0.00763154 
2084 70 1 14.026 13796.7 21296.8 2771.01 0.00293602 -0.00669264 0.00518429 
2079 70 1 14.026 13792.4 21296.3 2768.15 0.00142605 0.00396426 0.000317528 
3258 109 4 13.018 14934.7 21349.8 2720.27 -0.00303354 -0.00381548 0.00393133 
2232 75 4 13.018 16309.6 21400.9 2624.57 -0.00303041 -0.000824723 0.000720768 
2236 75 1 14.026 16312.7 21401.7 2623.71 0.00184708 -0.00133721 -0.00261967 
2076 70 1 14.026 13791.2 21297.9 2766.44 -0.0156428 0.00132052 0.00332599 
2233 75 3 15.034 16309.4 21401.3 2626.04 0.00257958 0.00428208 -0.000259287 
3256 109 1 14.026 14937.1 21350.1 2720.98 -0.00478699 -0.00624374 -0.00299779 
2080 70 1 14.026 13793.4 21297.2 2769.07 -0.00404577 0.00109934 -0.00333838 
2081 70 1 14.026 13794.6 21296.5 2769.53 -0.00585744 0.0061001 0.00859571 
3259 109 3 15.034 14934.1 21350.3 2721.59 0.00300533 0.00341416 0.00269064 
3260 109 1 14.026 14933.8 21349.7 2719.02 -0.00417349 0.00235129 0.00740182 
2231 75 1 14.026 16308.4 21400.2 2623.89 -0.000138987 0.00115771 0.00618362 
1469 49 3 15.034 14936.3 21354 2675.54 -0.00269082 0.00135378 -0.00161735 
2082 70 4 13.018 13795.4 21297.4 2770.42 -0.00165823 0.00292838 -0.00268585 
2083 70 3 15.034 13795.6 21298.8 2769.69 0.00288946 0.00531836 -0.00130508 
2234 75 1 14.026 16310.2 21402 2623.7 0.00106163 0.000516483 0.00713451 
3255 109 1 14.026 14938.4 21350.9 2720.87 -0.00252878 0.00204522 0.00759854 
3261 109 1 14.026 14934.6 21349.7 2717.76 -0.00215204 0.00039661 -0.00208358 
3379 113 3 15.034 14318.6 21312.6 2724.1 -0.0015085 0.00761734 0.00426265 
3382 113 1 14.026 14318.5 21311.1 2729.04 -0.00330642 -0.0029399 -0.00149475 
310 11 1 14.026 14884.1 21357.8 2680.56 0.00427421 0.003374 -0.00292507 
1536 52 1 14.026 13839.2 21314.9 2772.24 0.00485839 0.0040583 -0.00311068 
1538 52 3 15.034 13841.6 21315.5 2773.15 -0.00275004 -0.00278276 -0.00150813 
1889 63 3 15.034 15125.8 21363.8 2634.35 -0.005041 -0.00640191 -0.000699101 
1539 52 1 14.026 13839.5 21316.9 2773.65 -0.00435972 -0.00432124 0.00569205 
1537 52 4 13.018 13840.1 21315.5 2773.35 -0.00506109 -0.00531223 -0.00498476 
312 11 4 13.018 14883.2 21360 2680.76 -0.00726367 0.000655659 0.00380617 
311 11 1 14.026 14884.4 21359.2 2680.54 -0.00227994 -0.00244252 -0.00670758 
313 11 3 15.034 14883.4 21361.5 2681.13 -0.00438439 0.000627516 0.00686968 
3377 113 1 14.026 14319.9 21313.9 2725.98 0.000453287 0.000538784 0.00907708 
1540 52 1 14.026 13840.1 21317.7 2774.92 -0.00591299 0.000666839 0.00251325 
309 11 1 14.026 14885.1 21356.7 2679.99 0.000462372 0.00265351 -0.00492503 
3380 113 1 14.026 14318.6 21311.9 2726.59 -0.00313582 0.00601881 -0.00119167 
3378 113 4 13.018 14319.3 21312.5 2725.47 -0.00443844 0.00116267 0.000947144 
1467 49 1 14.026 14935.8 21355.6 2677.6 -0.00211726 -0.000898618 0.00755444 
3381 113 1 14.026 14319.3 21311.7 2727.9 -0.00867203 0.0040306 -0.00590809 
1535 52 1 14.026 13839.6 21313.5 2771.93 0.000291212 -0.00555143 0.00272613 
1533 52 3 15.034 13839.7 21310.8 2771.47 -0.00230117 -0.00323442 -0.00404343 
307 11 4 13.018 14884.6 21355.3 2680.2 -4.98592e-05 0.00302938 0.00239676 
3091 104 2 15.034 15458.4 21366.4 2725.76 -0.00631229 0.00307003 0.00428057 
3376 113 1 14.026 14320.7 21314.7 2724.91 -0.00167834 0.00331151 0.00390458 
3375 113 1 14.026 14321.1 21316.1 2725.26 0.00223246 0.00188735 -0.00282598 
1890 63 2 15.034 15128.4 21363.3 2634.04 -0.00314692 -0.00315738 -0.00403185 
1541 52 1 14.026 13839.4 21318.9 2775.36 0.00630782 0.00355454 0.00332385 
308 11 3 15.034 14884.8 21354.8 2681.68 0.0015798 -0.000287125 3.79842e-05 
1883 63 4 13.018 15125.9 21366.5 2639.13 -0.000568218 0.000498677 0.00263926 
2909 97 3 15.034 14932.1 21363.8 2731.4 -0.00410659 -0.00397328 -0.000287528 
3387 113 1 14.026 14315.9 21309.6 2732.31 0.00444552 0.00378212 0.00255561 
2910 97 2 15.034 14933.6 21362.2 2732.75 0.00299233 0.00573627 0.00127084 
1886 63 1 14.026 15126.8 21365.1 2637.13 0.00287825 0.00316473 0.0106822 
2908 97 4 13.018 14932.1 21362.5 2732.3 -0.00262578 -0.00205756 0.000943978 
3384 113 3 15.034 14318.8 21312.8 2730.76 -0.00294789 0.0016524 0.00108502 
2907 97 1 14.026 14931 21362.5 2733.37 -0.0123652 -0.00501251 -0.000869479 
3385 113 1 14.026 14316.6 21311.5 2730.7 -0.00349797 0.00189173 0.0016024 
3388 113 4 13.018 14316.1 21308.9 2733.58 0.00422067 0.00488048 0.000411547 
1884 63 3 15.034 15124.4 21366.4 2638.71 -0.00258484 -0.00219702 2.61953e-05 
3386 113 1 14.026 14317 21310.4 2731.71 0.000222231 -0.00499057 -0.00275479 
2906 97 1 14.026 14930.8 21361.1 2733.85 -0.00623209 -4.29219e-06 0.00825536 
1740 58 2 15.034 14413.9 21359.3 2782.35 -0.000873967 0.00521484 -0.00258954 
3383 113 4 13.018 14317.8 21312.1 2729.93 -0.00134873 0.00517205 -0.00302796 
3390 113 2 15.034 14314.9 21308.5 2734.39 -0.0054094 -0.000259654 -0.00393307 
3389 113 3 15.034 14317.1 21307.7 2733.37 -0.00274948 -0.00221772 -0.00232729 
1887 63 1 14.026 15127.5 21365.1 2635.75 0.0020028 -0.00535613 -0.000839934 
1888 63 4 13.018 15127.3 21363.9 2634.97 -0.00237743 -0.00608125 -0.00377337 
1885 63 1 14.026 15126.8 21366.5 2637.96 -0.00266629 3.75169e-05 -0.000186134 
1448 49 3 15.034 14938.5 21355.9 2686.48 -0.00958397 -0.00190585 -0.000166225 
3624 121 3 15.034 16457.1 21410.8 2687.99 -0.00259179 -0.00509247 -0.00636075 
1732 58 1 14.026 14415.3 21356.2 2787.05 1.3886e-05 -0.00405559 0.00248535 
1738 58 4 13.018 14413.1 21359.3 2783.66 -0.00518535 -0.00337678 -0.00147896 
2585 87 1 14.026 15407.1 21365.8 2693.72 0.000364976 -0.00146175 0.00169034 
1736 58 1 14.026 14412 21357.8 2785.45 -0.00195057 0.000574048 -0.00239655 
1737 58 1 14.026 14412.5 21357.9 2784.01 -0.000644489 0.00037312 0.000865842 
3623 121 4 13.018 16458.2 21411.8 2688.48 -0.00581392 0.00356528 0.00176723 
1731 58 1 14.026 14416.1 21357.4 2786.81 0.00353512 -0.00390947 0.00148594 
3620 121 1 14.026 16457.8 21412.3 2692.43 -0.00611881 -0.00458557 0.000154245 
2586 87 1 14.026 15408.2 21365.8 2692.66 -0.00168266 0.0040055 -0.00278112 
1798 60 4 13.018 15121.8 21359.7 2693.42 -0.00394241 -0.00257766 0.00743111 
1733 58 4 13.018 14413.9 21356.3 2786.33 0.00104289 0.00307813 0.00802604 
3621 121 1 14.026 16457.5 21411.7 2690.98 -0.00765618 0.00219232 0.00513618 
1735 58 1 14.026 14413.2 21357.6 2786.37 -0.00590652 -0.00316393 0.00320018 
1799 60 3 15.034 15122.8 21360.4 2692.53 -0.00677624 -0.000736548 0.000929449 
1739 58 3 15.034 14412.1 21360.5 2783.77 -0.002191 0.00684393 0.00332204 
1734 58 3 15.034 14412.9 21355.2 2786.59 -0.0104346 0.00602534 -0.00381864 
3618 121 4 13.018 16456.8 21411.8 2693.57 -0.00237412 -0.00229628 0.00486273 
3617 121 1 14.026 16456.8 21410.2 2693.58 0.00348668 -0.00294417 0.00341157 
3612 121 4 13.018 16455.4 21405.6 2695.27 0.0011241 0.00323379 -0.00026253 
2341 79 2 15.034 15170.8 21361.6 2746.27 -0.00117362 0.000563976 -0.000836066 
3610 121 1 14.026 16454.5 21403.3 2695.64 -0.00456775 -0.00348925 0.00382886 
3611 121 1 14.026 16454.2 21404.8 2695.75 -0.00570487 -0.00242703 0.00519724 
3614 121 1 14.026 16455.1 21407.2 2695.33 -0.000831906 -0.00220755 -0.00795638 
3613 121 3 15.034 16456.6 21405.3 2696.04 -0.00102282 0.00268579 0.00201008 
3607 121 4 13.018 16452.1 21402.4 2695.16 -0.00264227 -0.00375441 0.00331033 
3619 121 3 15.034 16457.1 21412.4 2694.9 -0.0018615 0.0025884 0.00455289 
2584 87 1 14.026 15407.1 21364.7 2694.7 0.00294679 0.00293321 -0.00158654 
3615 121 1 14.026 16456.1 21408 2694.47 0.000825939 0.00578216 -0.00454898 
2582 87 4 13.018 15405.9 21364.7 2695.77 -0.00136893 -0.00489577 -0.00393141 
2583 87 3 15.034 15406.2 21365.6 2697 -0.00660716 0.00256557 0.000806685 
3616 121 1 14.026 16456 21409.5 2694.63 -0.0077895 -0.00294119 0.00535153 
3609 121 1 14.026 16453.3 21402.4 2696.1 -0.00843479 -5.70698e-05 0.00193684 
2669 89 3 15.034 14320.5 21314.1 2745.64 -0.00430928 0.00199804 -0.00131013 
1800 60 2 15.034 15121.4 21360.3 2694.77 -0.00198015 -0.00937177 -0.0010292 
2342 79 4 13.018 15170.5 21360.7 2747.41 0.002277 -0.00198063 0.00958 
1389 47 1 14.026 16597.5 21411.9 2749.7 0.00286278 0.00775369 0.00270716 
1184 40 1 14.026 13796.5 21310.2 2655.22 -0.00264213 0.0020661 -0.00567592 
1385 47 1 14.026 16594.7 21410.5 2752.19 -0.00966641 0.00123997 -0.000465145 
2343 79 3 15.034 15171.5 21360.5 2748.55 -0.00180746 -0.000110657 0.00242064 
1181 40 1 14.026 13794.8 21308.6 2654.35 0.00239285 0.00157973 0.00601269 
1392 47 4 13.018 16600.6 21413.7 2747.92 -0.00884289 0.000362754 0.00429413 
1384 47 1 14.026 16593.9 21409.2 2752.16 -0.0095929 0.00380914 0.00286133 
1185 40 1 14.026 13797.7 21309.4 2654.81 -0.00148899 0.000323864 -0.00594787 
1390 47 1 14.026 16598.6 21412.9 2749.46 -0.00317441 0.00156482 -0.00158038 
1182 40 4 13.018 13795.3 21309.5 2655.59 -0.00390501 -0.00430131 0.00354031 
2344 79 1 14.026 15169.1 21360.8 2747.99 -0.00335156 -0.00561134 0.00130677 
1386 47 1 14.026 16595.7 21410.7 2751.07 -0.00266872 -0.00385112 0.00244526 
1388 47 3 15.034 16597.2 21412.3 2752.33 -0.00971711 0.00419752 0.00170244 
1183 40 3 15.034 13794.1 21310.4 2655.97 0.00369599 0.000704606 -0.00437418 
1387 47 4 13.018 16596.6 21411.9 2750.97 -0.00913928 0.00641234 0.000464189 
1391 47 1 14.026 16599.4 21412.7 2748.14 -0.00626005 -0.00233569 -0.00421327 
1180 40 1 14.026 13793.7 21307.5 2654.64 0.00019197 0.00230363 0.00370712 
287 10 1 14.026 14745.2 21361.3 2756.08 -0.00055606 -0.00496511 0.00626619 
282 10 4 13.018 14743 21365.5 2756.04 -0.0068079 -0.00304882 -0.00155011 
3358 112 4 13.018 15314.3 21356.7 2710.6 -0.00683969 0.004106 0.000906177 
291 10 1 14.026 14746 21357.8 2754.59 -0.00789145 -0.00437875 -0.00352158 
50 2 1 14.026 14083 21316.2 2758.17 -0.00791599 -0.00159493 -0.00106569 
288 10 4 13.018 14745 21359.9 2755.72 -0.00690924 -0.00320657 -0.00153747 
285 10 1 14.026 14744.2 21363.4 2757.24 -0.000455831 -0.000242484 -0.000169134 
284 10 1 14.026 14743.2 21363.9 2756.15 -0.00627013 4.66819e-05 0.00207496 
3359 112 3 15.034 15313.1 21357.5 2710.13 -0.00335041 -0.000842149 0.000663507 
290 10 1 14.026 14746.2 21359.2 2754.99 0.00773028 0.000796469 -0.000420675 
286 10 1 14.026 14744.3 21361.9 2757.27 -0.00510487 -0.00197579 0.00192422 
289 10 3 15.034 14743.7 21359.7 2754.93 -0.00365697 -0.00164575 -0.00182706 
3360 112 2 15.034 15315.3 21357.6 2711.33 -0.00814636 0.0004455 0.00564371 
292 10 1 14.026 14747.2 21357.3 2753.8 -0.00999116 0.00123718 -0.00395015 
283 10 3 15.034 14742.1 21365.8 2754.87 -0.00419334 -0.00379437 0.00219322 
281 10 1 14.026 14742.6 21366.3 2757.37 5.01028e-05 -0.00187241 0.00205396 
1104 37 3 15.034 16030.3 21414 2706.97 -0.00411372 -0.000279167 -0.000933858 
3357 112 1 14.026 15314 21355.5 2711.44 -0.00304622 0.00412082 -0.00199899 
293 10 4 13.018 14748.5 21357.3 2754.7 0.000458819 -0.00184633 0.00208646 
294 10 3 15.034 14748.5 21356 2755.58 0.00299581 -0.00186635 0.000442961 
56 2 1 14.026 14079.5 21316.5 2761.77 0.000799689 -0.00348443 0.00553548 
53 2 4 13.018 14080.7 21317.9 2760 -0.00261763 -0.00652625 -0.00115833 
59 2 3 15.034 14077.6 21314.6 2762.88 -0.00426286 0.0138606 0.00554095 
3356 112 1 14.026 15313 21355.8 2712.57 -0.00908637 0.00318014 0.00159659 
60 2 2 15.034 14077.9 21312.9 2760.84 -0.00166802 0.00219667 0.00836324 
52 2 1 14.026 14082.1 21317.2 2760.41 -0.00408282 0.00819552 0.00401817 
55 2 1 14.026 14079.7 21317.9 2761.1 -0.00280942 0.00523007 -0.000867726 
57 2 1 14.026 14078.9 21315.4 2760.81 -0.00814719 0.00227383 -0.000193973 
58 2 4 13.018 14078.4 21314.2 2761.63 -0.00626821 -0.00344703 0.00325351 
3354 112 3 15.034 15312.1 21356.2 2715.44 -0.000223573 -0.00142791 -0.00450221 
153 6 3 15.034 14319.4 21313.2 2666.91 -0.00455412 2.88996e-05 -0.00205325 
3353 112 4 13.018 15311.6 21355.1 2714.55 0.00137131 0.00124406 -0.00200149 
152 6 4 13.018 14320.1 21313.4 2668.28 -0.00589391 0.00306465 0.000117154 
151 6 2 15.034 14320.6 21312.1 2668.82 -0.00413551 -0.0038381 -0.000911333 
51 2 1 14.026 14083.3 21317.1 2759.36 0.00463898 -0.00720382 0.00545584 
1532 52 4 13.018 13839.5 21311.7 2770.24 -0.00191565 -0.0044225 -0.000327898 
1534 52 1 14.026 13838.9 21313 2770.61 -0.00528667 -0.00236884 -0.00272291 
99 4 1 14.026 14125.9 21317.1 2719.43 -0.00314935 0.00262268 0.00492546 
2191 74 2 15.034 15266.1 21358.9 2718.05 -0.000750587 -0.00114688 -0.00284265 
1470 49 2 15.034 14935.4 21356.4 2675.12 0.00167828 -0.000549916 0.00177259 
2193 74 3 15.034 15267.1 21360.6 2719.81 0.000907255 -0.00216689 -0.00300559 
2195 74 1 14.026 15269.8 21358.8 2719.62 -0.00147033 -0.004057 0.00221072 
96 4 1 14.026 14123.6 21318.3 2720.21 -0.0017218 -0.00266167 0.00695514 
97 4 4 13.018 14124.3 21317.1 2719.63 0.00451273 0.00269736 -0.00262159 
101 4 1 14.026 14128 21318.4 2718.88 -0.00929749 0.00242252 -0.00103057 
100 4 1 14.026 14126.4 21318.5 2718.99 -0.00161724 0.00377286 -0.00593592 
2194 74 1 14.026 15268.4 21358.4 2719.35 -0.00205111 0.00559504 0.00362965 
2192 74 4 13.018 15267.3 21359.5 2718.78 -0.00284541 -0.00104588 0.00276374 
1531 52 2 15.034 13838.7 21310.9 2769.09 0.000800603 -0.00230221 -0.00615855 
98 4 3 15.034 14123.7 21315.7 2720.11 -0.00393886 -0.00204703 0.000895198 
95 4 1 14.026 14123.8 21318.3 2721.74 -0.00404337 0.00158501 -0.00447833 
3093 104 3 15.034 15457.5 21366.4 2723.33 -0.000437539 0.00398953 0.00399569 
2235 75 1 14.026 16311.5 21402.6 2624.13 -0.00959329 -0.0050867 0.00214392 
2196 74 1 14.026 15270.8 21357.7 2720.03 -0.000739384 -0.00291886 0.00165574 
158 6 3 15.034 14320.3 21315.5 2673.24 -0.00352487 -0.00116472 0.000905922 
156 6 1 14.026 14320.8 21315.2 2670.73 0.00177557 0.00617095 -0.00251175 
1468 49 4 13.018 14935.5 21355.2 2676.13 0.000239381 0.00114206 0.000281886 
1154 39 1 14.026 15505 21375.8 2678.63 -0.00456872 -0.00081443 -0.00536 
3095 104 1 14.026 15456.9 21369.5 2723.69 -0.00594833 -0.00441565 -0.00428826 
93 4 3 15.034 14123.3 21320.7 2724.63 0.000153857 -0.000191258 -0.00208901 
1155 39 1 14.026 15503.8 21375.2 2679.39 0.00348644 -0.0036579 -0.000891596 
3178 106 4 13.018 15649.7 21371.2 2680.14 7.45234e-05 -0.00150982 0.00486754 
1156 39 1 14.026 15503.1 21374.2 2678.51 -0.00348358 -0.000366124 -0.00645336 
1152 39 4 13.018 15505.7 21377 2679.41 -0.00421036 0.00335734 0.00100439 
3094 104 1 14.026 15457.9 21368.6 2724.53 -0.000846523 0.000697576 0.00364467 
1158 39 4 13.018 15501.7 21372.6 2680.04 -0.00326229 0.000722719 0.00241104 
1542 52 4 13.018 13840 21319.7 2776.54 0.00400581 -0.00221195 0.00155677 
1543 52 3 15.034 13841.5 21319.9 2776.55 -0.00393174 -0.0059519 -0.0021353 
1159 39 3 15.034 15502.2 21371.2 2679.39 -0.00281546 0.00304639 0.00292676 
3177 106 1 14.026 15649 21370.5 2681.32 -0.00477114 -0.00689654 -0.00286787 
1151 39 1 14.026 15504.8 21378.2 2679.6 -0.00115795 -0.00344298 0.000860194 
3179 106 3 15.034 15648.9 21372.1 2679.23 -0.00238741 -0.00182489 0.00390073 
1157 39 1 14.026 15501.7 21373.7 2678.99 -0.0124656 -9.77296e-05 0.00525801 
3180 106 2 15.034 15650.5 21370.1 2679.37 0.000529232 -0.000533728 -0.00108379 
1153 39 3 15.034 15507.1 21377.5 2678.75 -0.00217505 -0.00257201 -0.00192155 
3092 104 4 13.018 15457.6 21367.1 2724.7 -0.000781696 8.71682e-05 0.000698291 
3438 115 4 13.018 15651 21375.4 2729.3 0.000463924 0.000618054 -0.00630082 
3440 115 1 14.026 15649.5 21375.2 2729.56 -0.00157752 0.000184455 -0.00167217 
1544 52 1 14.026 13839.3 21320.9 2777.07 -0.00094876 0.00381365 -0.00227329 
1545 52 1 14.026 13839.4 21321 2778.65 -0.0100779 2.31838e-05 -0.00872046 
3442 115 1 14.026 15647.3 21375.5 2730.95 -0.0109772 0.00161621 0.00130649 
3444 115 3 15.034 15647.8 21375.8 2733.46 0.000864603 -0.00167819 -0.00563274 
3176 106 1 14.026 15648.4 21371.3 2682.42 -0.00541797 0.00984676 -0.00144464 
3175 106 1 14.026 15648.1 21370.5 2683.64 -0.00362853 0.00164681 -0.00380011 
3445 115 1 14.026 15645.3 21375.8 2732.46 0.00312499 0.00131242 0.00173855 
1547 52 1 14.026 13838.4 21320.2 2780.98 -0.00541108 -2.54352e-05 0.000479324 
3441 115 1 14.026 15648.9 21375.7 2730.8 -0.0100865 -0.000326874 -0.00146675 
3172 106 1 14.026 15646.8 21370.4 2685.84 0.00448837 -0.00202059 0.000440661 
3446 115 1 14.026 15644.4 21376.3 2731.32 -0.00539545 -0.00701118 -0.00115731 
3443 115 4 13.018 15646.8 21376.1 2732.28 0.00308551 0.00133234 -0.00483643 
1546 52 1 14.026 13838.5 21319.9 2779.46 -0.00531277 0.00180666 0.00200893 
3174 106 3 15.034 15646 21372 2683.95 -0.00592818 0.00456283 -0.00203601 
1882 63 1 14.026 15126.1 21367.8 2639.99 -0.00531913 0.00289235 0.00153487 
3171 106 1 14.026 15646.5 21371.3 2687.08 -0.00153967 -0.00121925 0.0020699 
3173 106 4 13.018 15647.2 21371.3 2684.63 -0.00660336 -0.00319845 -0.00102778 
2588 87 3 15.034 15409.7 21367.2 2691.21 -0.00476818 0.00432951 -0.000974274 
3166 106 1 14.026 15643.7 21370.6 2690.44 -0.00669553 0.00093741 -0.00187245 
2590 87 1 14.026 15409.7 21369.2 2693.83 -0.00177799 -0.00297405 -0.00049305 
2756 92 1 14.026 15127 21376.6 2741.3 -0.0100549 -0.00121175 0.0045318 
2759 92 3 15.034 15128.2 21375.6 2738.76 0.0043377 0.00327711 0.00350175 
1880 63 1 14.026 15127.5 21369.4 2641.26 0.00374039 -0.00396218 0.00319607 
2587 87 4 13.018 15408.8 21367.1 2692.48 -0.0105613 0.00388615 -0.00492799 
2589 87 1 14.026 15409.6 21367.6 2693.71 -0.000390726 0.00270504 0.00368918 
2758 92 4 13.018 15126.7 21376.1 2738.85 -0.00280022 -0.00588114 -0.000385141 
3167 106 1 14.026 15645.1 21370.9 2690.81 -0.0018489 0.00351591 -0.00379401 
3170 106 1 14.026 15646.1 21370.6 2688.43 -0.00631459 -0.00257401 -0.00571249 
2597 87 1 14.026 15407 21374 2693.69 -0.00297488 -0.00238178 -0.001364 
3169 106 3 15.034 15647.3 21372 2690.1 -0.0036894 -0.00295794 0.0023153 
3168 106 4 13.018 15646 21371.5 2689.65 -0.00940989 0.000283455 -0.00345651 
2593 87 3 15.034 15411.4 21371.8 2693.92 -0.00612925 0.002527 -0.00107299 
2598 87 4 13.018 15405.8 21374.9 2693.57 -0.00477099 -0.00388421 -0.00577263 
2760 92 2 15.034 15126 21376.4 2737.51 -0.0002833 -0.0041896 -0.00427227 
2757 92 1 14.026 15126.6 21377.2 2739.92 -0.00333158 -0.00471945 -0.0018527 
1881 63 1 14.026 15127.4 21368 2640.67 0.00185879 0.00478579 0.000686501 
538 18 4 13.018 15408.9 21377.6 2699.08 -0.00895196 -0.000891574 0.00231854 
2748 92 4 13.018 15127.2 21373.4 2746.98 -0.00830486 0.000988054 0.000810784 
535 18 1 14.026 15406.9 21374.2 2699.27 0.00429766 0.00234855 -0.0066932 
2752 92 1 14.026 15126.8 21376.2 2744.21 -0.00296393 1.28404e-05 -0.00456302 
2743 92 3 15.034 15124.4 21367.1 2746.33 -0.00359993 0.0064352 -5.97812e-05 
537 18 1 14.026 15407.7 21376.6 2699.02 -0.000567568 0.00117697 0.00174339 
2744 92 1 14.026 15124.4 21369.7 2746.84 -0.00258255 -0.00147021 -0.00162506 
2747 92 1 14.026 15126.5 21372.1 2747.27 -0.00177535 -0.00121537 -0.000213685 
2746 92 1 14.026 15126.5 21371 2746.12 -0.00377977 -0.00159405 -0.00318973 
2753 92 4 13.018 15127.7 21377.2 2743.64 -0.00278245 0.00148301 0.00330612 
2591 87 1 14.026 15410.4 21369.7 2695.1 -0.00793916 0.000524178 0.00181245 
2592 87 4 13.018 15410.5 21371.3 2695.05 -0.0044106 0.00614949 -0.00171027 
2750 92 1 14.026 15126.6 21374.2 2745.81 -7.54928e-05 -0.00391626 -0.00712539 
533 18 4 13.018 15407.2 21372.8 2699.74 -0.00442766 0.00323319 0.00258683 
2596 87 1 14.026 15407.9 21374.2 2695.02 0.00756594 -0.00230429 0.00298247 
2594 87 1 14.026 15409.2 21372 2695.16 -0.0049165 -0.0027494 -0.00103847 
532 18 1 14.026 15406.1 21371.8 2699.53 -0.00132911 -8.26495e-05 0.00376178 