LAMMPS (10 Feb 2015)
Read molecule SQL:
  30 atoms with 4 types
  29 bonds with 1 types
  34 angles with 1 types
  31 dihedrals with 2 types
  6 impropers with 1 types
Reading restart file ...
  restart file = 10 Feb 2015, LAMMPS = 10 Feb 2015
  triclinic box = (111.252 111.252 111.252) to (158.748 158.748 158.748) with tilt (5.25802e-13 0 0)
  3 by 4 by 4 MPI processor grid
  3750 atoms
  3625 bonds
  4250 angles
  3875 dihedrals
  750 impropers
250 atoms in group endatoms
60 atoms in group samplechains
Resetting global state of Fix shear1 Style nvt/sllod from restart file info
Neighbor list info ...
  1 neighbor list requests
  update every 1 steps, delay 0 steps, check yes
  master list distance cutoff = 10.3
Setting up run ...
Memory usage per processor = 4.69793 Mbytes
Step dummytim Temp Volume Press Density PotEng TotEng Pxx Pyy Pzz Pxy Pyz Pxz myT 
500000000        5e+08    291.19703       107143    -208.4704   0.81907956   -879.62952    2374.5139    -715.6184   -423.93842    514.14562   -104.34027    68.198469   -16.142178    291.20788 
500100000    5.001e+08    298.26764       107143   -8.0026382   0.81907956   -985.82741    2347.3304   -221.02355   -156.13003    353.14567   -89.824739     1220.213    82.244954    298.28037 
500200000    5.002e+08    292.65269       107143   -61.316498   0.81907956   -863.13774    2407.2727    123.61127   -291.46685   -16.093916   -616.13044   -708.34705   -543.74637    292.66656 
500300000    5.003e+08    293.69284       107143   -145.05952   0.81907956   -927.24483    2354.7894    331.85049   -65.318583   -701.71046   -162.59716    306.68995   -125.85437    293.70505 
500400000    5.004e+08     288.0899       107143   -544.91707   0.81907956   -892.04507     2327.376   -527.70885   -763.71871   -343.32364    471.94887   -99.928314    340.96856    288.10399 
500500000    5.005e+08    295.06025       107143   -189.84679   0.81907956   -941.64641    2355.6687   -115.45397   -346.85913   -107.22725   -222.51987    164.95865    7.7362508    295.07358 
500600000    5.006e+08    299.35137       107143    -249.2446   0.81907956   -934.05648    2411.2121   -588.92333    -763.8349    605.02442     840.0368   -530.59596    -163.7601    299.36545 
500700000    5.007e+08    296.31555       107143   -352.16719   0.81907956   -863.94446    2447.3987   -923.26391   -254.67348    121.43581    165.81132   -784.33906   -669.56266    296.32619 
500800000    5.008e+08    291.42101       107143    798.52009   0.81907956   -847.36213    2409.2843     497.6659    1285.9979    611.89648    455.54536     268.4608    -237.6825    291.43263 
500900000    5.009e+08    290.48835       107143   -710.83984   0.81907956   -896.14189    2350.0819   -913.74295   -848.60128   -370.17531   -189.90903   -131.47462    -500.7256    290.50192 
501000000     5.01e+08    294.93664       107143   -122.43916   0.81907956   -845.37601    2450.5578   -309.30022   -151.53927    93.522004   -431.80146    348.79637   -13.751809     294.9494 
501100000    5.011e+08     293.2953       107143   -290.42653   0.81907956   -947.37521    2330.2165   -112.51819    87.161176   -845.92258    13.499045   -142.29966   -283.66796    293.30744 
501200000    5.012e+08    296.24639       107143    545.84857   0.81907956   -896.34363    2414.2266    380.53931    700.23381     556.7726    502.21113   -77.981797    292.22255    296.25875 
501300000    5.013e+08    295.18502       107143    182.41745   0.81907956   -896.83097    2401.8784   -354.79287     526.6449    375.40031    402.40942    806.56975   -854.98681    295.19684 
501400000    5.014e+08    294.17446       107143   -659.97452   0.81907956   -867.94292    2419.4734   -205.22068   -1056.7076   -717.99532    617.67949   -271.69978    419.89301    294.18781 
501500000    5.015e+08    290.50225       107143   -73.622287   0.81907956   -934.02967    2312.3495   -412.94404    197.81069   -5.7335055   -143.59996    193.90607   -175.30716    290.51492 
501600000    5.016e+08    292.50427       107143   -229.58664   0.81907956   -910.90208    2357.8498   -284.83708   -124.08743   -279.83543    20.174996   -341.70012    102.82269    292.51659 
501700000    5.017e+08    290.62091       107143    192.77881   0.81907956   -1014.3391    2233.3661    377.20033    128.28744    72.848674   -54.619003    222.77962    63.050209      290.634 
501800000    5.018e+08    286.87991       107143   -99.851146   0.81907956   -882.50231    2323.3971   -212.22971    99.508244   -186.83197   -30.781777    301.30228    636.01434    286.89171 
501900000    5.019e+08    286.02224       107143   -36.807187   0.81907956   -933.69636    2262.6184     107.6736    492.84869   -710.94386    60.775549    464.83421    -24.92938    286.03448 
502000000     5.02e+08     284.5114       107143    -419.4946   0.81907956   -922.96242    2256.4686   -454.13938    -522.6043   -281.74012   -236.19257    188.57482   -412.46354    284.52364 
502100000    5.021e+08    288.08599       107143   -133.20606   0.81907956   -912.04692    2307.3304    185.06885   -153.43872    -431.2483   -3.5043796    476.30231    511.41935    288.09904 
502200000    5.022e+08    294.91281       107143   -236.76246   0.81907956   -940.58147     2355.086    196.76286   -140.51175    -766.5385   -129.48857    420.36386    907.07534    294.92621 
502300000    5.023e+08    290.61102       107143   -358.25196   0.81907956   -993.04267     2254.552   -415.55464   -279.56956   -379.63167   -112.78654   -224.15939    277.04874    290.62348 
502400000    5.024e+08    284.72777       107143   -872.19566   0.81907956   -864.26995    2317.5791    -978.2417     -446.304   -1192.0413    155.70073    -291.8883      526.818    284.74152 
502500000    5.025e+08    296.21818       107143   -216.50776   0.81907956   -971.28823    2338.9668   -130.20069    227.07471   -746.39729    78.561351   -573.56998   -572.32904    296.23246 
502600000    5.026e+08     294.2083       107143   -59.975755   0.81907956   -866.23878    2421.5557    650.73178   -142.92785    -687.7312    125.54666    528.29185    517.63783    294.22146 
502700000    5.027e+08    288.12831       107143   -23.592396   0.81907956   -879.74666    2340.1036     371.4145   -642.50844    200.31675   -270.14052    424.94786    218.69786    288.14163 
502800000    5.028e+08    296.20918       107143    45.059054   0.81907956   -945.37561    2364.7788    400.22782   -84.622463   -180.42819    -540.6661   -100.45911    290.19835    296.22087 
502900000    5.029e+08    293.89466       107143   -694.25712   0.81907956   -925.22174    2359.0678   -880.57045   -115.60375   -1086.5972    664.21842   -440.41402    704.79423    293.90723 
503000000     5.03e+08    300.04977       107143    940.47671   0.81907956   -889.48197    2463.5913    331.47337    1212.6759    1277.2808    871.27732    461.19419    159.58162    300.06243 
503100000    5.031e+08    290.33342       107143    312.31161   0.81907956   -934.45254    2310.0399    320.60526     682.6396   -66.310037   -348.14364    -26.08325    110.52668     290.3457 
503200000    5.032e+08    292.82967       107143      367.816   0.81907956   -915.49635    2356.8919    608.27292    230.32808    264.84699    187.01215    155.78262     455.0614    292.84284 
503300000    5.033e+08    289.87048       107143    -605.0262   0.81907956   -941.76132    2297.5578   -264.45898   -527.38016   -1023.2395   -173.73185     401.1126   -23.310425    289.88267 
503400000    5.034e+08    288.83921       107143    156.87815   0.81907956   -992.80189    2234.9927    528.18496    727.56062   -785.11112   -330.55204    640.28424    4.0349537    288.85245 
503500000    5.035e+08    291.13318       107143    127.24341   0.81907956   -938.86267    2314.5672    229.49699    46.491878    105.74135     106.8123   -100.44838    -213.4928    291.14586 
503600000    5.036e+08    285.10411       107143   -840.90313   0.81907956   -966.73072    2219.3239    392.35172   -1343.2841    -1571.777   -304.68528   -416.78865   -228.04609    285.11687 
503700000    5.037e+08    289.53799       107143   -119.71723   0.81907956    -837.6984    2397.9052    348.54893   -201.66314   -506.03747   -30.425965   -128.68328   -395.07182    289.55253 
503800000    5.038e+08    292.11288       107143    -221.1416   0.81907956    -941.1266    2323.2514    144.08128   -94.490874   -713.01522   -610.39594    36.705346   -94.829288    292.12563 
503900000    5.039e+08    295.35623       107143   -458.33978   0.81907956   -831.79338    2468.8293    18.298319   -1304.0495    -89.26816   -305.73847    229.02699   -379.22236    295.37038 
504000000     5.04e+08      294.895       107143   -140.25938   0.81907956   -942.45163    2353.0168    21.389188   -653.98145    211.81414    476.40877   -177.19129   -54.219325      294.908 
504100000    5.041e+08    286.03691       107143    447.29524   0.81907956   -1037.4759    2159.0028    257.52806    1237.2113   -152.85361    466.01678    421.06846   -106.72807    286.04784 
504200000    5.042e+08    293.35903       107143    540.19609   0.81907956   -895.09814    2383.2057   -215.79778    579.34768    1257.0384   -448.80141   -175.33852   -256.37133    293.37157 
504300000    5.043e+08    297.54067       107143   -438.83528   0.81907956   -938.80776    2386.2261    477.55563   -779.78033   -1014.2812    336.84427   -14.739201    -595.4526    297.55213 
504400000    5.044e+08    295.24036       107143    413.25583   0.81907956   -918.40852    2380.9193     914.7082    -374.2253     699.2846   -352.92748   -737.07124   -402.49832    295.25119 
504500000    5.045e+08    290.69639       107143   -452.94203   0.81907956   -929.64369     2318.905   -85.228901   -532.67635   -740.92083   -380.29049   -51.203133   -662.02451    290.70812 
504600000    5.046e+08    295.60629       107143    100.53555   0.81907956   -909.18105    2394.2361    780.15953    -501.6699    23.117009     21.87639   -258.74448   -776.18868    295.61951 
504700000    5.047e+08     295.9838       107143   -51.773811   0.81907956   -820.45119    2487.1846   -230.89658   -81.252976    156.82812   -187.37951    569.90116    852.70493    295.99684 
504800000    5.048e+08    294.34954       107143    310.81408   0.81907956   -942.67749    2346.6954    499.23304    390.90029    42.308924   -372.69911   -730.15831   -114.80896    294.36218 
504900000    5.049e+08    291.69159       107143    539.15305   0.81907956   -857.92036    2401.7497    815.70959   -9.5221066    811.27167     350.1494    268.25223    370.52277    291.70425 
505000000     5.05e+08    294.91494       107143    673.71481   0.81907956   -846.53774    2449.1535    606.98294    332.04808    1082.1134    70.539965    179.03288   -335.68659    294.92837 
505100000    5.051e+08    286.27165       107143    907.57222   0.81907956   -916.04668    2283.0553    1188.4585    833.06578     701.1924   -496.88123   -354.96649    176.85529    286.28601 
505200000    5.052e+08    290.50985       107143    433.22205   0.81907956   -885.14205    2361.3221    217.37362    527.04995     555.2426   -453.05984    237.23602    279.45884    290.52165 
505300000    5.053e+08    292.77496       107143   -159.57709   0.81907956   -942.78983     2328.987   -1088.3726    1173.8625    -564.2212   -669.05919    12.188687    238.99249    292.78784 
505400000    5.054e+08    288.42428       107143    209.48039   0.81907956   -928.64383    2294.5139   -647.49295    295.13106    980.80306    56.304695    76.769539     327.1299     288.4376 
505500000    5.055e+08    286.03589       107143    541.05885   0.81907956    -921.4849    2274.9824    601.66063    1122.0196   -100.50373    346.52302    153.20251   -197.59319    286.04932 
505600000    5.056e+08    297.35093       107143    254.05642   0.81907956   -841.70493    2481.2086    297.67337    -122.1935    586.68938   -369.68904    -288.6099   -438.04104    297.36403 
505700000    5.057e+08    293.60131       107143     -439.681   0.81907956   -930.05558    2350.9558    171.94053   -1506.0515    15.067991    743.95899    659.05888   -237.20916    293.61484 
505800000    5.058e+08    292.75884       107143    97.921243   0.81907956   -925.32585    2346.2708    484.49773    314.62023   -505.35423   -219.41705    285.96259    207.00269    292.77252 
505900000    5.059e+08    294.07821       107143    208.95681   0.81907956   -939.18128    2347.1594    791.82707   -668.95103    503.99439    515.75334   -130.83123   -243.18374    294.09114 
506000000     5.06e+08    291.70194       107143    224.72199   0.81907956     -918.464    2341.3217    290.07622    434.76851   -50.678754    55.854238   -592.07186   -285.15911    291.71596 
506100000    5.061e+08    296.70423       107143   -532.44048   0.81907956   -878.09404    2437.5926   -697.21391   -138.42619   -761.68135   -484.11896    75.260681    91.008134    296.71758 
506200000    5.062e+08    296.72352       107143   -700.61919   0.81907956   -842.69349    2473.2087    -685.2905   -597.39738   -819.16969   -330.30402   -566.75455   -177.82328    296.73566 
506300000    5.063e+08    289.22512       107143    206.29242   0.81907956   -927.20122    2304.9059   -517.00769    519.95981    615.92513    113.69424    320.96145    346.25393    289.23943 
506400000    5.064e+08    292.40121       107143   -763.05636   0.81907956   -926.48565    2341.1145   -966.20069   -615.88394   -707.08445    455.23301   -361.62342   -271.05627    292.41494 
506500000    5.065e+08     290.6699       107143   -511.13112   0.81907956   -849.24361    2399.0091   -411.76495    -735.2429   -386.38552    98.102294   -461.48034     382.2575    290.68369 
506600000    5.066e+08    299.69828       107143    798.21203   0.81907956   -924.12804    2425.0172    582.35333   -347.81036    2160.0931   -467.37182   -8.8997069     519.2069    299.70985 
506700000    5.067e+08    296.75409       107143   -147.81939   0.81907956   -883.94135    2432.3025   -752.43031   -46.329166    355.30131   -306.83395   -643.85758    162.31792    296.76732 
506800000    5.068e+08    294.65792       107143    -921.8912   0.81907956   -905.90142    2386.9176   -422.56611   -1154.1047   -1189.0027    73.645078   -91.815225   -11.136494     294.6708 
506900000    5.069e+08    290.89062       107143   -406.07051   0.81907956   -965.94224    2284.7769   -361.54743   -8.3058506   -848.35826   -267.62846   -65.124018    484.62123    290.90413 
507000000     5.07e+08    287.04732       107143   -863.80551   0.81907956   -926.15174    2281.6184   -1005.7292   -1534.1362   -51.551075     187.1251   -674.68969   -488.35706    287.06086 
507100000    5.071e+08    288.07081       107143    77.569082   0.81907956   -932.93941    2286.2683   -500.66001   -118.75184     852.1191   -36.274164   -458.50012   -877.14837    288.08395 
507200000    5.072e+08    293.59142       107143    296.82279   0.81907956   -896.65968    2384.2411   -246.33317    1163.5458   -26.744272   -339.56934   -205.01092   -460.62173    293.60445 
507300000    5.073e+08    291.68707       107143   -239.92838   0.81907956    -942.7849    2316.8348   -180.44327   -687.63898    148.29712      378.479   -17.443559   -492.21417    291.70261 
507400000    5.074e+08    287.35994       107143   -426.47432   0.81907956   -957.45412    2253.8095   -490.28587   -1144.0477    354.91064   -250.56234   -345.47446   -19.410053    287.37378 
507500000    5.075e+08    296.45333       107143    189.13275   0.81907956   -934.38447    2378.4983   -144.27448    323.96941     387.7033     83.15942    387.25442   -83.567322    296.46712 
507600000    5.076e+08    291.04868       107143     448.7119   0.81907956   -928.38006    2324.1055   -547.35453    1285.1787    608.31152    95.224221   -345.66682   -185.44961    291.06124 
507700000    5.077e+08    291.55919       107143     634.7518   0.81907956   -919.22508    2338.9654    596.83904    455.66557    851.75081    161.99358   -640.35484     69.00872    291.57136 
507800000    5.078e+08    285.24473       107143   -344.07298   0.81907956   -899.45232    2288.1738   -513.02321    -73.27698   -445.91876   -9.3938217    110.43924    56.268269     285.2572 
507900000    5.079e+08    292.42849       107143    93.719719   0.81907956   -845.90803     2421.997    64.429708    724.70515    -507.9757     612.4065   -159.19955   -272.10164    292.44173 
508000000     5.08e+08    300.49705       107143    778.34513   0.81907956   -913.60846    2444.4631    193.28183    1235.6342    906.11933     453.7249   -228.76371   -199.78247    300.51178 
508100000    5.081e+08    295.24079       107143    398.64111   0.81907956   -806.72964    2492.6029    566.86712    212.50507    416.55114     11.80263   -447.66056     446.2773    295.25398 
508200000    5.082e+08     290.5823       107143   -281.04867   0.81907956   -911.64571     2335.628   -482.05509   -16.392562   -344.69834    329.28665   -284.57344    287.32064    290.59518 
508300000    5.083e+08    292.68114       107143   -14.430103   0.81907956   -893.30213    2377.4262    181.27531   -412.21462    187.64901   -100.44874    199.53319    497.42162    292.69347 
508400000    5.084e+08    296.95745       107143    -211.7566   0.81907956   -951.13238    2367.3841    -77.59157   -349.76565   -207.91257   -48.691539   -460.54727   -1066.9042    296.96972 
508500000    5.085e+08    303.43746       107143    -308.4084   0.81907956   -961.74053    2429.1904    246.78405   -582.90684   -589.10242    383.77335    68.267897   -22.229931    303.45042 
508600000    5.086e+08    298.47974       107143    477.20639   0.81907956    -888.9916    2446.5365     1030.463   -656.74476    1057.9009    -310.1645    809.53647   -68.723019    298.49218 
508700000    5.087e+08    299.21548       107143   -332.06738   0.81907956   -984.62672    2359.1233   -662.92096    4.2172762   -337.49845   -133.78443   -57.360327   -107.11683    299.22712 
508800000    5.088e+08    290.27417       107143    467.62797   0.81907956   -881.04786    2362.7825     240.3486     1274.245   -111.70967    55.040867    321.42895    -263.3708    290.28787 
508900000    5.089e+08    293.51794       107143   -421.88123   0.81907956   -1006.1871    2273.8926     124.3019   -1813.7104    423.76485    42.627747    328.73674    218.33583    293.53168 
509000000     5.09e+08    292.77789       107143   -337.42108   0.81907956   -936.34144    2335.4681   -1185.7213    77.081967    96.376103   -96.147023    197.10553    100.83312    292.79095 
509100000    5.091e+08    292.77641       107143     338.7142   0.81907956   -950.78578    2321.0073    632.44078    606.95158   -223.24975   -15.183403    33.246272    -532.4461    292.78851 
509200000    5.092e+08    295.22365       107143   -71.374293   0.81907956   -845.58868    2453.5524    211.71832   -156.39099   -269.45021    178.05856   -380.62573   -95.008806    295.23597 
509300000    5.093e+08    290.54665       107143   -540.65424   0.81907956   -919.96349    2326.9118   -500.64546   -597.69486   -523.62241   -497.35265   -62.968146   -651.45179    290.55856 
509400000    5.094e+08    302.45019       107143   -544.99614   0.81907956   -948.85052    2431.0476   -180.21737   -134.46625   -1320.3048    395.57971    489.01428   -14.298137    302.46435 
509500000    5.095e+08     293.7242       107143    454.32882   0.81907956   -884.66275    2397.7219    1367.7367    832.29499   -837.04525     314.7697   -321.98542   -518.72361    293.73615 
509600000    5.096e+08    297.51408       107143    938.06601   0.81907956   -932.32957    2392.4072    618.33367    815.92855    1379.9358    392.35136   -128.89203   -1068.4481    297.52662 
509700000    5.097e+08    297.61652       107143   -187.05808   0.81907956    -959.8423    2366.0392  0.051991137   -246.69291   -314.53333   -612.15408     453.1032    284.50907    297.63193 
509800000    5.098e+08    295.54622       107143    731.02137   0.81907956   -967.66231    2335.0835    255.98217    1154.7452    782.33679   -442.67236    105.77885   -420.07127    295.55936 
509900000    5.099e+08    289.35774       107143   -111.73286   0.81907956   -893.43922      2340.15   -87.498872   -536.36661    288.66689   -428.38961    427.77696    287.53226    289.36908 
510000000      5.1e+08    283.64912       107143   -231.95135   0.81907956   -1012.4934    2157.3017    -370.3835   -124.46447    -201.0061    131.41112    87.187553    192.89305      283.662 
510100000    5.101e+08    289.41216       107143    620.61661   0.81907956   -972.39747    2261.7999    1053.2926    421.12912    387.42815   -277.74473    494.09104    135.00111    289.42464 
510200000    5.102e+08    300.79654       107143    324.06544   0.81907956    -922.2276    2439.1909    488.79176   -50.668287    534.07284      78.2482   -160.24429   -17.301758    300.80906 
510300000    5.103e+08    293.90665       107143    229.20238   0.81907956   -921.60957     2362.814    651.94322    607.77246   -572.10854    451.05947    202.95574    63.524849    293.92067 
510400000    5.104e+08    292.69129       107143    578.88797   0.81907956   -917.42332    2353.4185    -320.2495    647.16505    1409.7484    1157.6614   -820.65029   -235.38414    292.70528 
510500000    5.105e+08    301.98163       107143   -799.57916   0.81907956   -936.14557    2438.5163   -1195.1187   -349.48666   -854.13213    42.145072    462.63732     90.37462    301.99382 
510600000    5.106e+08    284.82179       107143    31.718996   0.81907956   -966.32608    2216.5736    673.42289   -31.806418   -546.45949    45.016441   -571.00623    469.57517    284.83315 
510700000    5.107e+08     291.0346       107143    27.637782   0.81907956   -955.52717     2296.801    897.51602    44.437788   -859.04046   -83.546822      141.684   -109.02372    291.04593 
510800000    5.108e+08    284.83189       107143   -739.94759   0.81907956   -962.67787    2220.3347    210.91209   -1426.8987   -1003.8561    381.82588   -407.91038   -296.83343    284.84508 
510900000    5.109e+08    296.97278       107143    19.896648   0.81907956   -1056.2775    2262.4102    444.16689   -330.61936   -53.857586    -28.96649   -814.76973   -160.53168    296.98767 
511000000     5.11e+08    298.13116       107143    657.01577   0.81907956   -871.80584    2459.8268    309.23096    633.19803    1028.6183   -285.34243   -244.58506   -52.587288    298.14451 
511100000    5.111e+08    293.22781       107143   -85.860488   0.81907956   -868.83895    2407.9986    417.02939   -762.18153    87.570667    -525.4499   -186.76236    171.15889    293.24047 
511200000    5.112e+08    286.51574       107143    781.90678   0.81907956   -956.68068     2245.149    655.48717    1134.2763    555.95682   -740.32619    334.79634   -241.90602    286.52919 
511300000    5.113e+08    293.16278       107143    583.47501   0.81907956   -954.56511    2321.5456   -47.603842    847.65795    950.37092   -237.58161    715.51914   -403.34335    293.17516 
511400000    5.114e+08    289.42379       107143   -180.58116   0.81907956   -997.68737    2236.6399   -41.988015   -672.15761    172.40214   -914.03202   -131.26836     931.6306    289.43605 
511500000    5.115e+08    289.92527       107143   -67.217852   0.81907956   -999.03367    2240.8977    356.36046   -35.147791   -522.86623   -396.19457     998.6989    233.91521    289.93789 
511600000    5.116e+08    299.08514       107143    341.44642   0.81907956   -875.21033    2467.0832    453.49824     356.5244    214.31661   -426.63535   -498.12447    1109.6009     299.0989 
511700000    5.117e+08    283.66309       107143    745.88861   0.81907956   -1012.4224    2157.5288   -16.508079    475.98749    1778.1864    20.888411   -276.41628   -420.37958     283.6749 
511800000    5.118e+08    295.74864       107143   -301.94049   0.81907956   -942.82264    2362.1852   -1347.0548   -107.77592    549.00928   -385.67884    236.48938    256.44317    295.75979 
511900000    5.119e+08     292.0895       107143   -442.70274   0.81907956   -908.94864    2355.1681   -641.16159    5.4750878   -692.42171   -86.906514   -66.313136    409.70989    292.10209 
512000000     5.12e+08    291.03411       107143   -127.71326   0.81907956   -893.19304    2359.1297   -120.51596    114.94455   -377.56838   -715.60515    850.75937   -157.94284    291.04773 
512100000    5.121e+08     285.8803       107143   -518.25815   0.81907956   -892.06219    2302.6664   -129.10586   -1378.8414   -46.827146   -331.59651    331.22938   -606.26892    285.89328 
512200000    5.122e+08    300.77065       107143    263.88312   0.81907956   -823.79707     2537.332   -45.201391    525.51796    311.33279    302.34521    322.57077   -83.668069    300.78558 
512300000    5.123e+08    296.39378       107143   -450.27872   0.81907956   -915.47921    2396.7382   -640.67087   -353.42157   -356.74372    14.083058   -224.30184   -120.37767    296.40743 
512400000    5.124e+08     290.2963       107143   -599.82984   0.81907956   -953.91563    2290.1621   -677.05972   -727.44382   -394.98598    5.7777555   -665.50421    345.58051    290.31003 
512500000    5.125e+08    292.03092       107143    518.83869   0.81907956   -882.49573    2380.9664    590.61809     48.43412    917.46386   -116.34179    41.978542   -938.08493    292.04566 
512600000    5.126e+08    300.92293       107143    256.24129   0.81907956   -862.66371    2500.1672     1028.346   -439.37516    179.75298   -393.38642    21.903489    2.0244001    300.93516 
512700000    5.127e+08    285.74002       107143    251.41042   0.81907956   -948.42601     2244.735    910.36085    254.20269   -410.33227   -335.77343    6.0847531    181.12847    285.75154 
512800000    5.128e+08    297.35388       107143   -200.47715   0.81907956   -869.63151     2453.315   -530.91041   -7.7378955   -62.783141     420.0559     474.2205    -20.43306    297.36643 
512900000    5.129e+08    289.19591       107143    303.07174   0.81907956   -982.77976     2249.001   -100.29512    540.82075    468.68959    249.16143   -190.65747   -266.91858    289.20803 
513000000     5.13e+08    293.05761       107143    117.04296   0.81907956   -952.97787    2321.9576    603.80302    379.43373   -632.10786   -969.40008   -359.66037    690.68197    293.07062 
513100000    5.131e+08    290.91065       107143    -83.20795   0.81907956   -940.61563    2310.3275   -504.55752    -293.2285    548.16217   -88.687397   -56.217444   -145.20745    290.92347 
513200000    5.132e+08    294.34414       107143    525.58977   0.81907956   -844.31347    2444.9991    1064.8706   -187.79954    699.69824    321.99735   -118.18192    800.18456    294.35761 
513300000    5.133e+08    296.30543       107143    816.25993   0.81907956     -875.132     2436.098    876.39616    809.38841    762.99522   -9.6755071     -464.497   -181.56025    296.31965 
513400000    5.134e+08    296.85484       107143    125.98736   0.81907956   -905.99109    2411.3786   -833.05325    689.50471    521.51061    195.97344   -771.30784   -988.00377     296.8683 
513500000    5.135e+08    293.31766       107143     314.8063   0.81907956   -875.40542    2402.4361    969.42847    128.85668   -153.86625    381.52873   -182.31591   -403.95595     293.3281 
513600000    5.136e+08     288.4558       107143   -485.15995   0.81907956    -925.2069    2298.3031    278.56635   -1155.4681   -578.57812   -273.31715   -292.92488    293.06102    288.46777 
513700000    5.137e+08    302.28025       107143   -154.78332   0.81907956   -878.39509    2499.6039   -578.78393    20.218164    94.215806    199.52432   -360.90918   -699.46401    302.29425 
513800000    5.138e+08    292.69961       107143    305.18908   0.81907956   -948.85539    2322.0794   -378.52063    665.30302    628.78484    599.03337   -37.815207    121.48648    292.71135 
513900000    5.139e+08    294.54359       107143   -260.09167   0.81907956   -905.77893    2385.7625   -868.64392   -318.57061    406.93951    383.21817     278.3962    -50.76769    294.55556 
514000000     5.14e+08    295.56229       107143    203.25713   0.81907956   -995.79565    2307.1297   -495.31272    1533.3006   -428.21645    358.51627    582.71201   -557.59211    295.57448 
514100000    5.141e+08    288.60371       107143   -442.98033   0.81907956   -968.01091    2257.1519   -410.78618   -252.21238   -665.94244     440.4288    202.21235   -142.24078    288.61536 
514200000    5.142e+08     289.8507       107143    145.04471   0.81907956   -948.39012     2290.708    47.549218    458.85868   -71.273763   -425.31369   -199.13011    -291.5587    289.86501 
514300000    5.143e+08     292.2572       107143    244.15021   0.81907956   -835.45505    2430.5358     567.4717    290.48774   -125.50882   -139.75342    211.19431    427.44041    292.27118 
514400000    5.144e+08    297.54308       107143   -781.46768   0.81907956   -960.43109    2364.6297   -823.23242   -1147.2584   -373.91218   -81.640639    375.91007   -85.005659    297.55736 
514500000    5.145e+08    301.37075       107143     201.5347   0.81907956   -860.08635    2507.7489   -223.64126    154.81751    673.42785   -203.83742   -326.90251   -359.72358     301.3838 
514600000    5.146e+08    290.86397       107143   -458.93213   0.81907956   -888.42532    2361.9961    232.10154   -911.58679   -697.31115   -336.73316   -382.77195    -386.7771    290.87733 
514700000    5.147e+08     289.8347       107143    348.14618   0.81907956   -931.66812    2307.2511     129.7599    926.74868   -12.070051   -238.32651    248.62886    541.77042    289.84729 
514800000    5.148e+08    292.09849       107143    592.43952   0.81907956   -879.86061    2384.3567    978.88415    1011.1527   -212.71833    64.051187    -9.915987    -133.1634    292.11133 
514900000    5.149e+08    298.52166       107143   -124.07892   0.81907956    -824.3693    2511.6273    599.37688    -397.7634   -573.85026    119.11638   -390.95146    94.166847    298.53523 
515000000     5.15e+08     293.8068       107143   -166.10754   0.81907956   -865.69519    2417.6125    79.300139   -155.96816   -421.65461    341.67458   -103.53464   -101.79016    293.82042 
515100000    5.151e+08    295.97784       107143   -486.61736   0.81907956   -923.60117     2383.968   -469.75602   -739.47733   -250.61874    295.99996    784.39321   -130.69896    295.99292 
515200000    5.152e+08    295.03274       107143   -213.55713   0.81907956   -841.03576    2455.9719   -8.2347221   -203.71721   -428.71944   -469.17204    304.64569   -761.98739    295.04516 
515300000    5.153e+08    297.62348       107143    647.21668   0.81907956   -914.12367    2411.8357    943.26577     583.1069    415.27737    206.72743    277.62141    39.566236    297.63759 
515400000    5.154e+08    293.02308       107143   -40.797775   0.81907956    -895.7595    2378.7901    245.83902   -432.03802    63.805674    387.33272    320.28882   -760.71492    293.03671 
515500000    5.155e+08    294.31618       107143    304.27509   0.81907956   -863.79391    2425.2061   -596.31868    366.88629    1142.2577   -1322.3713   -451.73712     299.7783     294.3295 
515600000    5.156e+08    290.19486       107143   -499.65593   0.81907956   -953.06872    2289.8754   -255.49733   -732.63247     -510.838   -184.49569    55.296632    45.714342    290.20645 
515700000    5.157e+08    291.15311       107143   -487.21756   0.81907956    -930.5789    2323.0737   -129.18932   -931.37131   -401.09205     485.7257   -778.94211    49.118635    291.16455 
515800000    5.158e+08    296.01074       107143    434.87878   0.81907956   -888.76686      2419.17   -457.01029    1059.3453    702.30133     116.4864    886.17705   -145.90148    296.02368 
515900000    5.159e+08    289.88433       107143   -89.285752   0.81907956   -784.93245    2454.5414    187.41644   -376.10049   -79.173201   -124.46263    389.91186   -67.414154    289.89915 
516000000     5.16e+08    290.50466       107143   -106.67442   0.81907956   -982.73719    2263.6689    264.50533    239.07953   -823.60813   -801.46134    415.92586    188.10825      290.518 
516100000    5.161e+08     301.1897       107143   -663.84221   0.81907956   -897.65943    2468.1526   -336.87305   -1200.9253   -453.72824   -215.35419   -331.86366   -184.27127    301.20441 
516200000    5.162e+08     296.2452       107143    1111.5106   0.81907956   -935.47533    2375.0816    1739.6101    524.04902    1070.8726    1047.4549   -469.07157     172.1729     296.2594 
516300000    5.163e+08    297.35268       107143    147.53019   0.81907956   -976.44155    2346.4916    265.68806    672.01676   -495.11426    420.46092    90.770093   -628.30432    297.36486 
516400000    5.164e+08    292.46726       107143    508.00001   0.81907956   -890.79216    2377.5461   -182.86841    1402.6147    304.25372   -620.50652    297.93889   -672.19597    292.48031 
516500000    5.165e+08    298.04299       107143    304.38535   0.81907956   -878.48323    2452.1641    719.18326   -428.12402    622.09679   -873.16245    66.784225   -770.00873    298.05725 
516600000    5.166e+08    301.28208       107143   -74.550614   0.81907956   -912.30688    2454.5375   -674.04838    386.42338     63.97315   -544.93309    177.77672    24.834336     301.2962 
516700000    5.167e+08    292.18054       107143   -400.17625   0.81907956   -909.28625    2355.8479    427.46001   -913.96933   -714.01942    621.18585    625.97279    696.07428    292.19483 
516800000    5.168e+08    294.09322       107143    215.75725   0.81907956    -925.7612    2360.7473   -208.59163    237.21714    618.64624   -925.16829    272.00964   -156.39714    294.10665 
516900000    5.169e+08    294.66067       107143   -92.259023   0.81907956   -884.38249    2408.4672    175.74219     48.75713   -501.27639    664.67346   -649.64836   -184.57458    294.67288 
517000000     5.17e+08     292.7027       107143   -540.79669   0.81907956   -878.53088    2392.4385   -697.41349   -613.78694   -311.18963    125.40921   -217.65063      124.772    292.71646 
517100000    5.171e+08    290.82668       107143    18.784054   0.81907956    -957.8868    2292.1179   -336.88198   -273.06617    666.30032   -59.991453    211.23853   -313.89613    290.83731 
517200000    5.172e+08    293.23415       107143   -889.86452   0.81907956   -878.23624    2398.6721   -566.81514   -403.04696   -1699.7315    282.88082    9.5507541   -261.39641    293.24723 
517300000    5.173e+08      296.448       107143   -607.74277   0.81907956   -978.20909    2334.6141   -1164.8355   -290.55013   -367.84268    263.48642    469.52202   -111.62923    296.46086 
517400000    5.174e+08    296.07463       107143    70.933516   0.81907956   -969.03063    2339.6202    432.45319    68.842971   -288.49561    464.68733    247.91359    409.87919    296.08899 
517500000    5.175e+08    290.41567       107143   -1375.2698   0.81907956   -865.66821    2379.7435   -1088.2469     -1672.19   -1365.3725    117.69097    205.80507   -45.908216    290.42872 
517600000    5.176e+08    292.46914       107143   -694.28065   0.81907956   -887.76079    2380.5984   -231.64393   -753.64293   -1097.5551     28.36488   -664.51414    223.69358    292.48223 
517700000    5.177e+08    299.23475       107143    311.76067   0.81907956   -1000.4667    2343.4987    364.07467     305.7944    265.41293    279.16512   -131.34865   -519.41186    299.24936 
517800000    5.178e+08    295.28572       107143   -178.46654   0.81907956   -851.73303    2448.1017    497.62535   -502.91357   -530.11138    141.01886   -172.61952    444.91514    295.29803 
517900000    5.179e+08    294.41147       107143    194.34726   0.81907956   -884.04544    2406.0195   -245.62124   -128.87479     957.5378   -203.94329   -120.66875    428.24867    294.42385 
518000000     5.18e+08     296.5197       107143    30.873706   0.81907956   -833.80405    2479.8205   -340.43515    346.47346      86.5828   -285.86543   -468.16662    393.18901    296.53273 
518100000    5.181e+08    294.47487       107143    44.391292   0.81907956   -965.04815    2325.7253    436.66172   -169.53529   -133.95255    116.00064    376.76074   -58.162228    294.48958 
518200000    5.182e+08    293.67834       107143   -50.617084   0.81907956    -964.0952     2317.777    -90.18149   -424.12199    362.45223   -252.20638    430.24777   -387.06045    293.69304 
518300000    5.183e+08    293.63742       107143   -414.24703   0.81907956   -925.47442    2355.9405   -970.83653    257.09092   -528.99549   -404.79967    147.89698    102.55149    293.64889 
518400000    5.184e+08    288.84104       107143    626.71953   0.81907956    -892.7474    2335.0677    484.00963    930.06658    466.08239    453.05376    196.91594    311.51371      288.855 
518500000    5.185e+08    283.69327       107143    126.74348   0.81907956   -886.41046     2283.878    68.167797   -70.341284    382.40393    299.53052    244.45039     130.1784    283.70459 
518600000    5.186e+08    300.23387       107143     112.2512   0.81907956    -874.2653    2480.8653    114.77558   -210.15925    432.13727   -45.924971    324.26197   -445.33179    300.24687 
518700000    5.187e+08     290.4568       107143   -639.96373   0.81907956   -991.44766    2254.4236   -652.01725   -661.65648   -606.21746    460.32886    45.670698   -599.43201    290.47056 
518800000    5.188e+08    296.28398       107143   -50.038804   0.81907956   -841.09605    2469.8943    680.81323   -290.63296   -540.29668   -550.82378    71.032114    395.22359    296.29755 
518900000    5.189e+08    293.35111       107143   -327.77678   0.81907956   -912.20743    2366.0079   -184.20255   -663.51199   -135.61581    189.06814    558.16744   -39.938706    293.36423 
519000000     5.19e+08     294.0183       107143    395.29754   0.81907956   -861.50207    2424.1691    1446.7026    65.614194   -326.42416    65.356415   -417.70774    -161.9491     294.0334 
519100000    5.191e+08    294.65072       107143   -122.45301   0.81907956   -857.21038    2435.5282   -865.51555   -509.84161    1007.9981    291.00948    492.05182    344.79422     294.6637 
519200000    5.192e+08    291.65606       107143    99.445876   0.81907956   -877.83923    2381.4338   -762.30769   -325.17316    1385.8185   -12.378628    554.88021    73.225189    291.66736 
519300000    5.193e+08    290.22294       107143   -750.88429   0.81907956   -939.60456    2303.6533   -1228.7961   -193.18763   -830.66913   -44.472799    462.20117    561.68718     290.2343 
519400000    5.194e+08     287.4826       107143   -182.05734   0.81907956   -1003.6185    2209.0159    -1248.749    285.26066     417.3163    325.32992   -228.15905    586.57378    287.49448 
519500000    5.195e+08    294.17799       107143   -387.99519   0.81907956    -898.0538     2389.402   -1320.9037   -132.50093    289.41904    830.97176   -32.410475   -201.44769    294.19104 
519600000    5.196e+08    290.29684       107143    -738.3974   0.81907956   -921.18765    2322.8961    -370.6929   -1324.9264    -519.5729   -312.75717   -17.091951    676.80631    290.30976 
519700000    5.197e+08    295.20278       107143   -345.59276   0.81907956   -953.18936    2345.7185    344.57127   -694.13733   -687.21223   -329.33016    372.82233    437.88854    295.21672 
519800000    5.198e+08    303.65724       107143    182.55234   0.81907956   -896.14829    2497.2386    203.94686    254.82067    88.889506    46.124385   -418.73652    210.62276    303.67083 
519900000    5.199e+08    293.20571       107143   -471.96837   0.81907956   -870.94064    2405.6498    619.76156   -840.51135   -1195.1553   -107.99443    173.69022    1115.0331    293.21917 
520000000      5.2e+08    289.67276       107143   -429.71592   0.81907956    -892.6926     2344.417   -319.63474   -780.86779   -188.64524   -487.85157   -51.591496   -332.71935    289.68646 
520100000    5.201e+08    293.72564       107143    902.80014   0.81907956   -904.41109    2377.9896    966.13041    194.24697     1548.023    173.86422   -441.04745   -961.98106    293.73828 
520200000    5.202e+08    293.47713       107143   -318.72509   0.81907956   -939.73428    2339.8893   -384.16527    -485.5012   -86.508794   -755.42816   -301.82783   -23.791822    293.49004 
520300000    5.203e+08    294.64587       107143   -207.66459   0.81907956   -913.15657    2379.5278   -223.22636   -574.40775    174.64036    201.34383    225.14739    112.19514    294.65826 
520400000    5.204e+08    292.65959       107143    112.66308   0.81907956   -948.16259    2322.3249    542.32653   -415.13424    210.79697   -623.66361    274.32008    24.369377    292.67248 
520500000    5.205e+08    294.49823       107143    97.108481   0.81907956   -897.95469    2393.0798    31.298986    -123.8511    383.87755    22.316318   -9.1001252    -70.04098    294.51233 
520600000    5.206e+08    291.34596       107143   -308.81242   0.81907956    -955.0442    2300.7635    65.258455    205.33143   -1197.0272   -547.67749    1131.9879    243.46317    291.35919 
520700000    5.207e+08    287.50555       107143    140.01914   0.81907956   -872.42801    2340.4629    685.90992     54.04271   -319.89521   -390.56091    1193.6193   -561.07689    287.52081 
520800000    5.208e+08    288.46555       107143    11.152529   0.81907956   -846.36709    2377.2518     600.6074    108.07681   -675.22662    195.30071   -103.23185   -12.359817    288.47828 
520900000    5.209e+08    285.42321       107143   -1122.0474   0.81907956   -987.00736    2202.6133   -383.01863   -1567.8955    -1415.228    -271.0485   -94.401206   -7.6332664    285.43489 
521000000     5.21e+08    299.26545       107143    8.9038938   0.81907956   -883.90307    2460.4054    785.62651   -15.611717   -743.30311    140.06986   -691.44314    303.93105     299.2774 
521100000    5.211e+08    294.11072       107143    85.281983   0.81907956   -1002.0402    2284.6639   -208.47829    914.13976   -449.81552   -294.72223    163.85623   -117.26069    294.12537 
521200000    5.212e+08    291.16741       107143    281.29812   0.81907956   -888.18788    2365.6245   -59.881316    574.83445    328.94124   -675.33376   -426.12411    557.05356    291.18038 
521300000    5.213e+08    296.86617       107143      381.198   0.81907956   -837.43002    2480.0663    63.931151     1110.446   -30.783186   -475.61461   -5.1340546   -337.04997    296.87809 
521400000    5.214e+08    298.21206       107143   -180.58194   0.81907956   -909.37241    2423.1643    173.44673   -208.07187   -507.12069   -478.81471       175.05    70.344507    298.22495 
521500000    5.215e+08    291.11243       107143   -655.81298   0.81907956   -898.80516    2354.3928   -363.86378     86.76492   -1690.3401    331.17502   -143.80437   -665.52967    291.12354 
521600000    5.216e+08    293.74448       107143   -131.13719   0.81907956   -931.82861    2350.7827    120.10779    236.16636   -749.68571   -195.93988    460.01037   -410.89051    293.75836 
521700000    5.217e+08    294.10834       107143    1194.4048   0.81907956   -892.07479    2394.6026    508.68374    1704.1283    1370.4024    749.64134    189.15277   -32.229602    294.12098 
521800000    5.218e+08    291.01354       107143   -118.57255   0.81907956   -899.19981     2352.893    421.84189    -748.8954   -28.664148   -540.67766   -383.57364   -236.99192    291.02745 
521900000    5.219e+08    288.08384       107143   -357.68508   0.81907956   -853.94026     2365.413   -687.61169   -367.34218   -18.101351    183.45387    878.31276   -357.25726    288.09752 
522000000     5.22e+08    296.92083       107143    699.62599   0.81907956   -945.22181    2372.8854    648.58814    787.06652    663.22329    81.886492   -518.32888   -258.66881    296.93446 
522100000    5.221e+08    291.63366       107143    320.26969   0.81907956   -947.33482    2311.6879    689.19362   -134.01395    405.62941    363.74298   -668.64377   -9.4606909    291.64699 
522200000    5.222e+08    293.24484       107143   -7.0961191   0.81907956   -916.40427    2360.6235    782.36978   -872.14632    68.488181    305.41029   -158.78136    131.64591    293.25839 
522300000    5.223e+08    295.10936       107143    214.87829   0.81907956   -937.23137    2360.6325    142.61512   -183.52232    685.54206   -48.055381   -495.64577   -488.10231    295.12289 
522400000    5.224e+08    288.15088       107143    -691.0773   0.81907956   -912.64394    2307.4586   -725.81512   -653.48723   -693.92955    47.716666    342.18403   -44.288952    288.16543 
522500000    5.225e+08    298.70056       107143    6.5569724   0.81907956   -944.83817    2393.1575   -217.09437    224.81872    11.946567   -168.13312    238.29223    11.753842     298.7138 
522600000    5.226e+08    296.14732       107143   -659.70887   0.81907956   -901.10938    2408.3537    -494.4944    10.389183   -1495.0214    317.95415    372.42223     303.9415    296.16128 
522700000    5.227e+08    291.02732       107143   -214.58853   0.81907956   -834.60923    2417.6376   -503.04145   -813.21724    672.49309   -543.70425    26.954868   -263.61536    291.04141 
522800000    5.228e+08    287.65029       107143    207.70208   0.81907956   -887.12446    2327.3839    56.987109   -106.24387      672.363   -1.0840233   -136.17024    130.10771    287.66417 
522900000    5.229e+08    289.56009       107143    1113.7847   0.81907956   -876.72202    2359.1284    1564.7473    660.59844    1116.0083    102.68071    -772.6999   -371.44068    289.57317 
523000000     5.23e+08    302.01393       107143   -269.75958   0.81907956   -933.32402    2441.6988    302.58285   -773.18728    -338.6743    212.87344    483.54191   -652.46274    302.02634 
523100000    5.231e+08     293.9032       107143    202.76598   0.81907956   -946.53842    2337.8465    467.12274    447.01138   -305.83617   -725.10367    89.666246   -238.61448    293.91558 
523200000    5.232e+08    290.19495       107143    -94.47689   0.81907956   -937.30428    2305.6408     -141.607    312.05366   -453.87733   -487.08848    697.86305    817.57006    290.20898 
523300000    5.233e+08    293.31387       107143   -261.46134   0.81907956   -920.08347    2357.7157    182.08676   -386.69721   -579.77358   -669.62424    355.33948     412.9392    293.32537 
523400000    5.234e+08     291.9793       107143    447.51052   0.81907956   -963.49948    2299.3858      842.922    326.99537     172.6142     255.7315   -968.99811    232.58067    291.99232 
523500000    5.235e+08    288.58156       107143   -453.59158   0.81907956   -963.54329    2261.3721   -787.33225   -63.749149   -509.69333   -213.98457    -258.5173    295.59245    288.59614 
523600000    5.236e+08    292.31057       107143   -750.27128   0.81907956   -981.58072    2285.0066   -369.92242   -466.42378   -1414.4676   -750.83485   -1.7979956    858.92137    292.32393 
523700000    5.237e+08    291.18035       107143   -376.09392   0.81907956   -849.82281    2404.1342    260.03379   -559.45949   -828.85606   -408.72791    78.975432    274.75372    291.19395 
523800000    5.238e+08     295.6032       107143     1054.043   0.81907956   -958.58801    2344.7945    540.25751    1701.0588     920.8126    358.39482    302.02143    561.64853     295.6162 
523900000    5.239e+08    291.33428       107143   -661.87316   0.81907956   -901.61424    2354.0629   -929.65287   -75.616816    -980.3498   -100.82279    191.41178    157.62291     291.3468 
524000000     5.24e+08    292.74838       107143    124.55469   0.81907956   -917.01726    2354.4626   -830.85629    1512.2279   -307.70752    274.88157    171.97354   -378.84054    292.76269 
524100000    5.241e+08    291.98656       107143    521.92083   0.81907956   -919.81883    2343.1475    619.58128    831.93552    114.24569   -96.427306    663.96753    766.80135    291.99994 
524200000    5.242e+08    291.01695       107143   -174.75798   0.81907956   -968.95376    2283.1772    104.30294   -81.679294   -546.89758   -685.01851    116.89032    14.805793    291.03145 
524300000    5.243e+08    289.36038       107143   -292.03601   0.81907956   -890.29032    2343.3284   -462.59611    90.808458   -504.32039    378.07624   -95.303418   -360.44812    289.37423 
524400000    5.244e+08    296.12815       107143    821.98324   0.81907956   -913.56144    2395.6875    354.43364    466.97115    1644.5449   -169.01211   -11.067084   -621.78938    296.14214 
524500000    5.245e+08    294.02438       107143   -505.94213   0.81907956    -865.7669    2419.9722   -1235.3134   -791.71292    509.19997   -722.69194    13.557123   -217.92937    294.03841 
524600000    5.246e+08    293.56823       107143   -110.64409   0.81907956   -951.18364     2329.458   -295.70622    77.863259    -114.0893    178.58766   -320.98926   -86.918748    293.58164 
524700000    5.247e+08    292.97744       107143    598.85787   0.81907956   -932.35016    2341.6894   -33.363897    1172.0267    657.91081   -293.03296    182.45939    457.08546    292.99015 
524800000    5.248e+08    289.50314       107143   -569.40367   0.81907956   -901.35167    2333.8624   -737.47663   -386.26775   -584.46662   -151.63215    795.32377     885.5957    289.51614 
524900000    5.249e+08    287.52039       107143   -675.53262   0.81907956   -837.97836    2375.0784   -2062.3297    59.994397   -24.262561   -281.42585    223.28798    98.194419    287.53342 
525000000     5.25e+08    293.77229       107143   -977.77403   0.81907956   -878.79898    2404.1231   -326.99355   -1345.7986     -1260.53   -110.21624    227.32962    511.63728    293.78677 
525100000    5.251e+08     295.1942       107143    274.60184   0.81907956   -890.46727    2408.3447   -315.87494    796.38334     343.2971    53.264438   -186.25868   -634.31181    295.20762 
525200000    5.252e+08    292.33404       107143    540.30226   0.81907956   -919.01854     2347.831    805.80484    279.45141    535.65054    73.349585    358.50912    556.42493    292.34779 
525300000    5.253e+08    291.16353       107143   -303.60373   0.81907956   -929.30804    2324.4609    -567.6251   -79.293539   -263.89255   -101.84599   -380.56658    553.00378    291.17794 
525400000    5.254e+08    292.56174       107143   -575.81297   0.81907956    -951.4753    2317.9188    -601.5785   -921.30907   -204.55133   -176.20543   -55.549732   -109.38815    292.57521 
525500000    5.255e+08    292.73665       107143    492.53817   0.81907956   -933.92008    2337.4286    817.26014    549.71126    110.64312    86.113779    10.579165   -232.70125    292.74895 
525600000    5.256e+08    293.31418       107143    100.76419   0.81907956    -933.8096     2343.993   -151.94476    13.977056    440.26027    189.39332    459.40299     190.5704    293.32776 
525700000    5.257e+08    293.01963       107143   -190.53701   0.81907956   -1000.0574    2274.4537   -667.16535     170.6141   -75.059787   -129.92085   -232.01222    404.44993    293.03222 
525800000    5.258e+08    285.31531       107143   -144.01258   0.81907956   -936.90707    2251.5077    -582.5911    355.22721   -204.67385    -82.49921    406.01907    413.51312     285.3285 
525900000    5.259e+08    292.64959       107143      777.225   0.81907956   -1068.6155    2201.7604    1205.5059    335.26927    790.89978   -9.9180112   -264.22278   -89.263533    292.66258 
526000000     5.26e+08    288.53994       107143   -308.72525   0.81907956    -904.4259    2320.0243   -596.93333   -3.6691712   -325.57325    367.30762    -379.2125    -142.7357    288.55246 
526100000    5.261e+08    298.49926       107143   -760.94489   0.81907956     -1005.93    2329.8162   -357.43876   -816.69485   -1108.7011    -360.3425   -355.60396     380.8718    298.51231 
526200000    5.262e+08    298.25371       107143   -123.88674   0.81907956   -935.65021     2397.352    13.147841    781.51763   -1166.3257    181.64438   -551.96105   -4.2280172    298.26772 
526300000    5.263e+08    300.64582       107143   -216.66078   0.81907956   -908.48788    2451.2463   -73.388872     164.6712   -741.26467    524.47854   -331.65114   -140.55783    300.66173 
526400000    5.264e+08    286.85099       107143    805.33136   0.81907956   -944.28445    2261.2917    917.64701    730.15337    768.19371    26.309383    -60.28515    237.58224    286.86426 
526500000    5.265e+08     295.2859       107143   -618.13752   0.81907956   -982.63502    2317.2017   -569.27655   -364.08603   -921.04998   -199.17668    710.93962    24.690451    295.29948 
526600000    5.266e+08    293.55109       107143     442.7618   0.81907956   -986.71071    2293.7394    648.14205     278.8861    401.25726     988.3667     316.3623    5.0371418    293.56363 
526700000    5.267e+08    295.24746       107143    -584.5629   0.81907956   -862.40047    2437.0067   -853.81297   -602.59583   -297.27989   -889.56891   -579.20669   -126.19726    295.26004 
526800000    5.268e+08    283.17187       107143   -328.40532   0.81907956   -1046.0236    2118.4382   -587.30838   -414.73686    16.829271   -327.49758    374.03526     221.2297    283.18394 
526900000    5.269e+08    292.07187       107143   -129.51309   0.81907956   -893.47986    2370.4399   -720.50817   -240.90285    572.87175     400.3827   -108.91822   -763.94177    292.08646 
527000000     5.27e+08    295.21492       107143   -449.83249   0.81907956   -919.28888    2379.7547   -121.66048    12.217512   -1240.0545   -1048.5702   -271.97836   -80.789587      295.229 
527100000    5.271e+08    286.45212       107143   -134.88686   0.81907956   -833.55505    2367.5637    10.763675    199.27982   -614.70407    281.53568   -259.33861     579.3815    286.46667 
527200000    5.272e+08    298.35357       107143   -133.67828   0.81907956   -806.77393    2527.3442    71.882108    45.690367   -518.60732    -115.5025   -63.750227    232.91067    298.36685 
527300000    5.273e+08    292.71639       107143   -421.28993   0.81907956   -924.90918    2346.2131   -1505.1358    -7.625361    248.89137    -410.6125    533.34168   -396.44394    292.72875 
527400000    5.274e+08    290.75879       107143    158.40143   0.81907956   -973.90071    2275.3453    56.400744    827.10604   -408.30248    211.12658    407.49829     189.2628    290.77188 
527500000    5.275e+08    290.59927       107143     151.9283   0.81907956    -969.4581    2278.0053    117.43982    858.89726   -520.55219   -264.60348   -263.26923    180.79329    290.61296 
527600000    5.276e+08    285.04423       107143    296.46791   0.81907956    -892.7968    2292.5887    525.58156    35.528333    328.29383   -259.91155    98.160874   -647.71496     285.0565 
527700000    5.277e+08    290.81568       107143    638.52446   0.81907956    -999.1382    2250.7436    1134.1831   -309.87153    1091.2618    415.67129    198.93022    457.83229    290.82863 
527800000    5.278e+08    295.18429       107143   -332.21874   0.81907956   -890.08886    2408.6124    191.01288   -1018.8511   -168.81798   -717.88261    727.03844    316.58747     295.1967 
527900000    5.279e+08    290.96368       107143    212.64784   0.81907956   -973.04049    2278.4952    289.62873    463.64609    -115.3313   -460.58067   -214.81254   -171.57459    290.97743 
528000000     5.28e+08     294.9701       107143    649.90982   0.81907956   -887.14971    2409.1579    929.04186   -147.50068    1168.1883    277.42004   -118.83759   -658.09883      294.982 
528100000    5.281e+08    290.90514       107143    181.88254   0.81907956   -905.11268    2345.7688    742.59387    12.122641   -209.06888    649.69866   -98.744857   -77.008172    290.91765 
528200000    5.282e+08    296.66361       107143     20.60468   0.81907956   -911.21415    2404.0186    292.83551    62.799903   -293.82137    182.29658   -200.89246    376.95765    296.67832 
528300000    5.283e+08    293.88467       107143    591.60795   0.81907956   -830.07402    2454.1039    782.05379    479.52148    513.24857   -382.18225    540.37368   -84.342426    293.89768 
528400000    5.284e+08    293.99826       107143   -103.23201   0.81907956   -895.28383    2390.1634   -517.89872   -417.51621    625.71891   -44.317356    193.86852    32.940112    294.01192 
528500000    5.285e+08    297.00255       107143   -50.705722   0.81907956    -831.9549    2487.0655    -240.9048    132.57744   -43.789806    -47.48344    370.23438   -49.731653    297.01511 
528600000    5.286e+08    297.39347       107143   -100.21121   0.81907956   -967.59765    2355.7914   -88.851532    -39.77728   -172.00483   -169.10822   -436.31391   -919.01652    297.40671 
528700000    5.287e+08    294.80258       107143    415.74818   0.81907956   -994.55484    2299.8807    587.54098   -69.496733    729.20028    40.627048   -95.774322    66.620224    294.81568 
528800000    5.288e+08    296.01503       107143   -89.299297   0.81907956   -887.59121    2420.3936   -168.93458    98.135434   -197.09874     137.8489   -208.42547   -286.82062    296.02845 
528900000    5.289e+08    284.50643       107143   -414.01981   0.81907956   -994.47372    2184.9018   -783.19211   -683.06765    224.20033   -588.89856   -33.350065   -135.47351    284.52006 
529000000     5.29e+08     295.8079       107143   -166.92666   0.81907956    -976.0555    2329.6146    387.32092    80.061539   -968.16245   -43.609281   -198.27404    424.90666    295.82108 
529100000    5.291e+08    296.56196       107143   -63.414622   0.81907956   -937.54044    2376.5564   -252.07038    54.893014    6.9334991     374.4155    659.55199     68.17168    296.57467 
529200000    5.292e+08    295.14891       107143    271.83587   0.81907956   -923.41695    2374.8889    787.48034   -111.00318    139.03044   -486.52486    883.09605    340.37599    295.16294 
529300000    5.293e+08    289.96621       107143    176.16088   0.81907956     -910.513    2329.8758   -326.92226    644.27531    211.12958    347.79479   -527.85615     630.1618    289.98099 
529400000    5.294e+08    292.40277       107143    399.38936   0.81907956   -1001.9355    2265.6821   -14.730161    425.75094     787.1473    475.41682   -207.74157    357.24988    292.41528 
529500000    5.295e+08    289.95629       107143    395.94602   0.81907956   -864.09367    2376.1843     710.2726   -316.96275    794.52822   -74.512301   -316.82405    386.04702    289.97064 
529600000    5.296e+08    297.10902       107143     248.4039   0.81907956   -875.09572    2445.1144   -80.271404      787.178    38.305093    -20.92609   -144.26205    468.91324    297.12202 
529700000    5.297e+08    287.99435       107143   -227.23133   0.81907956   -909.06881    2309.2844   -757.45938   -478.42863    554.19402    30.424669    165.79324    178.65835     288.0082 
529800000    5.298e+08    295.53932       107143    101.21378   0.81907956   -846.54631    2456.1224    494.06045   -399.94758    209.52849    308.10409    468.09472   -85.306563     295.5529 
529900000    5.299e+08    300.05603       107143   -551.85939   0.81907956    -973.2924    2379.8508   -401.20839   -488.69081   -765.67898    234.45481    475.39993    -154.8313    300.06797 
530000000      5.3e+08      298.597       107143    181.57323   0.81907956   -875.44998    2461.3885    169.39756     620.2709   -244.94877    221.53333    973.62784   -120.45499    298.61225 
530100000    5.301e+08     291.7696       107143    189.73295   0.81907956   -918.94367    2341.5982    607.77982    198.13336   -236.71434   -464.61218    246.00555   -77.950661    291.78345 
530200000    5.302e+08     291.6192       107143    138.05647   0.81907956    -937.4168    2321.4443    426.51644   -466.44753    454.10049    281.20536    489.45089   -289.58379    291.63172 
530300000    5.303e+08    291.84966       107143   -329.62284   0.81907956   -920.92141    2340.5152    16.050638    -854.8044   -150.11474    14.279656    608.45273    2.5266831    291.86319 
530400000    5.304e+08    288.93941       107143    1619.8135   0.81907956   -994.58746    2234.3269    1419.3565    989.05855    2451.0255   -367.21558    111.56953   -522.04498    288.95268 
530500000    5.305e+08    290.25094       107143   -577.50415   0.81907956   -951.24591    2292.3248   -747.72784   -896.26002   -88.524585    41.858735   -173.07162     591.2382    290.26432 
530600000    5.306e+08    296.09204       107143     125.2743   0.81907956   -922.28031    2386.5651    522.28066    146.37203   -292.82977   -792.32374    651.44579   -109.28779    296.10434 
530700000    5.307e+08    292.83854       107143   -204.31595   0.81907956   -994.21009    2278.2772   -235.72808   -181.46118   -195.75858   -677.87361    252.17591    345.37983    292.85215 
530800000    5.308e+08    292.39135       107143   -411.17127   0.81907956   -959.88071    2307.6092    63.278211   -428.89752    -867.8945    155.78481    54.052413     -253.203    292.40502 
530900000    5.309e+08    300.81915       107143   -624.94775   0.81907956   -858.70511     2502.966   -421.16647   -668.88817   -784.78861    777.34208   -1022.1733   -295.19106    300.83184 
531000000     5.31e+08    295.26943       107143    213.73262   0.81907956   -961.14142    2338.5113    1180.8354    125.81636    -665.4539    557.47916    147.58441    236.97569    295.28242 
531100000    5.311e+08    289.03188       107143    1148.6457   0.81907956   -833.04579    2396.9019    1402.3115    1514.6642    528.96132    14.303539    20.495684    -84.05207    289.04706 
531200000    5.312e+08    288.89125       107143    529.15274   0.81907956   -917.51131    2310.8648     990.3566   -7.7007655    604.80238   -314.19432    -189.1589    244.19397     288.9035 
531300000    5.313e+08    290.64727       107143   -367.09754   0.81907956   -943.46343    2304.5363   -476.88113   -238.76267   -385.64883    226.25271    360.49528   -67.950105    290.66144 
531400000    5.314e+08     294.5504       107143   -266.99647   0.81907956   -964.29937    2327.3181    276.16056   -785.63661   -291.51337    342.28778   -413.35872    235.32772    294.56461 
531500000    5.315e+08    285.77449       107143   -18.232028   0.81907956   -914.00859    2279.5376   -75.733557   -51.801271    72.838743   -1053.8339   -506.42696    42.184552    285.78863 
531600000    5.316e+08    294.16757       107143   -155.43725   0.81907956   -969.13998    2318.1994   -57.262763   -441.92194    32.872953    -249.7199    92.230631    18.627502    294.18238 
531700000    5.317e+08    288.67891       107143    45.929203   0.81907956   -927.27358    2298.7297    -89.08112    124.87297    101.99576   -277.42372    -487.9556    -648.1481    288.69268 
531800000    5.318e+08    295.17061       107143    178.96498   0.81907956   -946.34758    2352.2007   -421.23982    581.69523    376.43953    341.53797    780.54588    49.830051    295.18307 
531900000    5.319e+08     287.2113       107143   -1102.2945   0.81907956    -966.8495    2242.7531   -822.67467   -621.97899   -1862.2299   -24.367471   -533.78172    689.46922     287.2241 
532000000     5.32e+08    295.67404       107143   -588.99219   0.81907956   -932.14237    2372.0319    245.61504   -2021.2114    8.6197661   -227.95954    401.19774   -282.53848    295.68893 
532100000    5.321e+08     291.9202       107143   -175.76375   0.81907956   -961.94549    2300.2794   -406.11899   -588.53418    467.36192   -92.426958   -715.99985    436.29418    291.93479 
532200000    5.322e+08    290.71621       107143    20.601549   0.81907956   -860.80921     2387.961    86.722887    -231.8246    206.90636    537.56294   -718.32726   -106.31916    290.72929 
532300000    5.323e+08     290.8299       107143     824.9012   0.81907956   -872.77675    2377.2639   -35.850748    884.25703    1626.2973   -366.08812    200.68717   -383.24712    290.84415 
532400000    5.324e+08    299.21628       107143    63.463002   0.81907956   -948.31629    2395.4427   -426.85225    42.720823    574.52043    36.759589    341.57282    287.98551    299.22998 
532500000    5.325e+08    294.08071       107143    196.19032   0.81907956   -925.93828    2360.4304    187.56952      479.385   -78.383556   -44.506507   -249.03742    72.991952    294.09512 
532600000    5.326e+08    289.23498       107143    413.82305   0.81907956   -921.26058    2310.9568    1033.7947   -561.10779    768.78223    404.05436   -599.25338    361.22146    289.24912 
532700000    5.327e+08     286.8402       107143    42.760742   0.81907956   -1023.4666     2181.989    41.925156    2.7379921    83.619078   -260.24717   -34.256063   -640.61371    286.85222 
532800000    5.328e+08    292.37734       107143    423.19602   0.81907956   -952.53623    2314.7971    312.94395    807.34934    149.29478   -114.96962    461.59939   -133.60576    292.39093 
532900000    5.329e+08     296.6697       107143    84.506352   0.81907956   -974.36106    2340.9397    -567.1562    530.54015    290.13511    -223.5748   -115.99556    522.99887    296.68166 
533000000     5.33e+08    292.34849       107143    167.52841   0.81907956   -893.52469    2373.4863   -510.63018    440.71951     572.4959   -367.73483   -367.18681  -0.66325466    292.36267 
533100000    5.331e+08    297.81816       107143    262.78432   0.81907956   -898.78401    2429.3509    10.412718    720.96718     56.97305    60.023043    219.30164    634.21094     297.8316 
533200000    5.332e+08    291.57177       107143   -179.84996   0.81907956   -950.88812     2307.443    528.30298   -950.76671   -117.08614    754.54206   -274.95402   -488.30301    291.58389 
533300000    5.333e+08    290.17938       107143   -464.58834   0.81907956   -976.73193    2266.0392   -441.73268   -635.39868   -316.63366    642.10283    148.63789    566.40893     290.1925 
533400000    5.334e+08     290.3096       107143   -1036.5719   0.81907956   -896.99854    2347.2278   -828.97425   -1141.0795   -1139.6619   -160.66414   -702.12235    92.999798    290.32304 
533500000    5.335e+08    285.29086       107143    115.04489   0.81907956   -883.85427    2304.2873    936.25266    -1068.453    477.33496    428.60261   -536.36844    -325.3712    285.30433 
533600000    5.336e+08    298.49951       107143   -593.63318   0.81907956   -970.62179    2365.1273   -83.388769   -652.96528   -1044.5455   -200.86433    490.19896   -556.18477    298.51239 
533700000    5.337e+08    293.22301       107143    -32.78821   0.81907956   -848.69774     2428.086    -408.7785   -828.73843    1139.1523   -584.41734    -338.3954   -483.34828    293.23566 
533800000    5.338e+08     293.7157       107143     509.5984   0.81907956   -870.39098    2411.8987   -13.977765    566.98166    975.79131    280.53225    201.21019   -215.32551    293.73057 
533900000    5.339e+08    300.24502       107143    674.52778   0.81907956   -937.15482    2418.1004    1434.2348    335.19659    254.15199   -219.64033    227.39352   -21.870509    300.25865 
534000000     5.34e+08     299.4618       107143   -218.12805   0.81907956   -876.66655     2469.836   -83.468245   -517.03905   -53.876859      -719.71   -454.05061    214.51525    299.47529 
534100000    5.341e+08      298.727       107143   -183.92649   0.81907956   -940.29835    2397.9928   -279.49218   -924.73961    652.45232    100.28598    346.56304    40.287967    298.73964 
534200000    5.342e+08     292.6936       107143   -182.50746   0.81907956   -942.11716    2328.7504    140.24553   -604.54181   -83.226095    74.019744   -180.16366   -228.94278    292.70637 
534300000    5.343e+08    289.35519       107143   -309.41353   0.81907956   -948.15484    2285.4059   -315.12493   -505.94471   -107.17094   -100.48609    49.507626   -48.022527    289.36781 
534400000    5.344e+08    296.98484       107143    114.22838   0.81907956   -881.79297    2437.0296     249.2547   -470.40832    563.83875    124.84971    35.985265   -26.970957    296.99975 
534500000    5.345e+08    287.28468       107143   -447.52192   0.81907956   -908.56451    2301.8581   -970.17335   -26.181411     -346.211     502.2262    153.50489   -454.47437    287.29785 
534600000    5.346e+08    299.96041       107143   -33.963065   0.81907956   -788.00853    2564.0661    505.67934   -518.90864    -88.65989   -4.9562678   -571.59354   -49.968164     299.9734 
534700000    5.347e+08    293.23621       107143    -384.3789   0.81907956   -934.44482    2342.4865   -151.24189   -1067.0888    65.193961    197.82494   -304.17438     32.38885    293.24806 
534800000    5.348e+08    294.85784       107143   -63.645759   0.81907956   -938.35226    2356.7009   -37.671619    -85.39299   -67.872669    -110.9972    1463.6988    172.84386    294.87157 
534900000    5.349e+08      289.578       107143     345.4479   0.81907956     -982.798    2253.2526    169.40405     359.5598    507.37984    711.97826    24.226961   -77.375196    289.59141 
535000000     5.35e+08    288.77982       107143   -658.50364   0.81907956   -847.96558    2379.1653    -780.8425   -1233.1389    38.470478   -483.29725     51.11572    208.62833    288.79287 
535100000    5.351e+08    293.22036       107143    209.38503   0.81907956   -873.91281    2402.8414    25.259768    98.951967    503.94334    120.56377    263.09024    70.662581    293.23297 
535200000    5.352e+08    289.85548       107143    51.135246   0.81907956   -943.28407    2295.8675   -603.47459    175.17836    581.70197    163.73661   -37.195935     180.2083    289.86922 
535300000    5.353e+08    295.53076       107143    826.05708   0.81907956   -996.05048    2306.5226    912.57677    825.75076    739.84372   -456.70422   -108.31524    234.24327    295.54583 
535400000    5.354e+08    285.43159       107143    582.47504   0.81907956   -958.33867    2231.3755    620.15152    976.61394    150.65968   -237.18414    406.69955    -188.5233    285.44576 
535500000    5.355e+08    289.25274       107143   -490.01068   0.81907956   -930.45462    2301.9612    116.86553   -758.65047   -828.24711    729.93849   -571.11896    65.323232    289.26572 
535600000    5.356e+08    290.97236       107143   -465.61754   0.81907956   -984.32522    2267.3075   -6.1171735   -1036.2055   -354.52997   -388.53498    390.38368   -410.53251    290.98608 
535700000    5.357e+08    294.01966       107143   -552.67027   0.81907956   -914.99182    2370.6946   -86.329224   -1072.7764   -498.90516    89.743047   -76.905626   -338.37213    294.03402 
535800000    5.358e+08    296.77253       107143    137.49907   0.81907956   -811.14604    2505.3038    614.25316   -163.67484   -38.081095    408.34546    329.66458    19.763079    296.78551 
535900000    5.359e+08    287.70286       107143   -128.14101   0.81907956   -928.10214    2286.9937   -900.03739   -62.110023    577.72439   -324.70699    -370.4095     176.8415    287.71643 
536000000     5.36e+08    290.43609       107143   -4.6519401   0.81907956   -884.26234    2361.3774   -703.17654    127.41359    561.80713   -264.37858    336.28929    393.97442     290.4503 
536100000    5.361e+08    294.01593       107143   -4.6111685   0.81907956   -917.43847    2368.2063    586.29155   -777.50155    177.37649   -999.55439    115.04495    165.13775    294.02996 
536200000    5.362e+08    293.30206       107143    342.37486   0.81907956   -933.00682    2344.6604    366.92053     72.62047    587.58358   -573.46128    316.29995    543.84588    293.31537 
536300000    5.363e+08    291.69049       107143    163.72598   0.81907956   -917.39646    2342.2613   -131.69554   -122.26634    745.13982   -442.42194    103.64852   -314.43193    291.70351 
536400000    5.364e+08    292.56587       107143    508.27093   0.81907956   -962.22406    2307.2162    493.74599    625.63615    405.43064   -399.04419   -80.239622    16.151705    292.57981 
536500000    5.365e+08     292.3807       107143   -565.07561   0.81907956   -946.94793    2320.4231   -1028.6582   -392.58746   -273.98117   -371.08424    552.20486    -1000.015    292.39334 
536600000    5.366e+08    306.12494       107143   -376.62715   0.81907956    -870.8159    2550.1477   -450.67635   -693.40781    14.202712    81.367947    186.70434    -96.72603    306.13907 
536700000    5.367e+08    292.32661       107143   -320.15312   0.81907956   -913.08143     2353.685   -297.38388   -853.62091    190.54542    161.85661   -194.70498   -243.74958    292.34129 
536800000    5.368e+08    297.35146       107143   -574.20413   0.81907956   -854.30383    2468.6157    -211.5575   -1042.8002   -468.25465   -286.56777   -222.01242   -247.64841     297.3668 
536900000    5.369e+08     294.1571       107143    209.75273   0.81907956   -1007.4332    2279.7892   -47.184778    459.74236    216.70061   -590.20548    659.22395    286.65789    294.16993 
537000000     5.37e+08      303.132       107143    322.73391   0.81907956   -931.92068    2455.5967    432.94031    347.45094    187.81048    164.39098   -318.52628    292.83514    303.14387 
537100000    5.371e+08    301.20889       107143   -77.818074   0.81907956   -997.33254     2368.694   -113.03906   -60.073517   -60.341647    398.87127    298.62887   -264.30869    301.22214 
537200000    5.372e+08     294.0082       107143   -184.71966   0.81907956   -936.26934     2349.289   -149.06488   -200.84118    -204.2529    220.29176     44.98992   -43.224621    294.02151 
537300000    5.373e+08    289.13294       107143    340.77324   0.81907956   -886.71794    2344.3591    322.75029    502.30145    197.26797   -589.87959    895.29691    119.26019    289.14568 
537400000    5.374e+08    294.70649       107143    561.95922   0.81907956   -952.35938    2341.0024    431.05148     883.9481    370.87807    154.79156    58.801824    302.30587    294.71983 
537500000    5.375e+08    296.66108       107143    223.68987   0.81907956   -947.64478    2367.5597    471.52238    49.402764    150.14446   -46.658372   -222.44488    -596.0198    296.67358 
537600000    5.376e+08    291.58807       107143    838.90316   0.81907956   -897.97437    2360.5389    914.77395    619.99046    981.94508    -745.5927   -324.36577     502.6702     291.6014 
537700000    5.377e+08    298.55226       107143   -149.71791   0.81907956    -874.9729    2461.3655   -699.68964    302.70265   -52.166747    372.10128    385.11273   -79.183855    298.56646 
537800000    5.378e+08    298.28494       107143    550.86702   0.81907956   -857.53605    2475.8152     883.4297    83.558992    685.61236    167.21853    529.38169    756.59886    298.29862 
537900000    5.379e+08    291.29863       107143   -152.58701   0.81907956   -837.14619    2418.1326   -105.65386   -904.06518    551.95801   -57.502267    515.18575    75.499897    291.31219 
538000000     5.38e+08    290.12195       107143   -337.72401   0.81907956   -1014.7907    2227.3386    465.05092    111.17899   -1589.4019     120.3015   -324.37241   -134.66624    290.13705 
538100000    5.381e+08    289.28372       107143   0.43259243   0.81907956    -907.4701    2325.2919   -303.93057     551.7963   -246.56795   -229.96914    275.11191    31.213769    289.29637 
538200000    5.382e+08    293.76903       107143    120.58345   0.81907956   -896.79584    2386.0897    309.14205    109.75094   -57.142644    662.43978    -239.0005   -386.24795    293.78309 
538300000    5.383e+08    303.29135       107143    393.38607   0.81907956   -987.08741    2402.2107    677.29435    155.20905    347.65479   -207.00818   -159.52828   -212.45676    303.30494 
538400000    5.384e+08    295.04148       107143   -34.074968   0.81907956   -971.00795    2326.0973   -556.91548   -510.49206    965.18264      392.993    179.98109   -322.10892    295.05496 
538500000    5.385e+08    297.26763       107143   -262.26393   0.81907956   -969.76434    2352.2183   -403.62958   -283.90169   -99.260517   -305.99194   -323.11198   -455.26862    297.28069 
538600000    5.386e+08    287.27511       107143   -698.45953   0.81907956   -925.07904    2285.2367   -434.71551   -936.03581   -724.62727   -73.475648    366.50018    131.90925    287.28887 
538700000    5.387e+08    290.92823       107143   -638.25781   0.81907956   -840.54097    2410.5986   -592.17072   -442.46952   -880.13319    89.183374    -342.0837   -859.58493    290.94126 
538800000    5.388e+08      288.965       107143   -191.29395   0.81907956   -928.82501    2300.3754   -500.42985   -1023.5608    950.10876   -149.34745   -428.72629    247.80829    288.97858 
538900000    5.389e+08    286.17693       107143   -300.52562   0.81907956   -893.17111    2304.8724    70.389744   -426.81453   -545.15206    383.74916   -634.13145    60.184116    286.19109 
539000000     5.39e+08    298.64234       107143     232.4676   0.81907956   -905.63202    2431.7131    19.637699    2.3067375    675.45835   -503.18633    26.194025    102.03116    298.65607 
539100000    5.391e+08    292.36508       107143   -522.40942   0.81907956   -933.41885    2333.7775   -90.311776   -522.22602   -954.69045    -818.6815    231.94576   -7.0727607    292.37918 
539200000    5.392e+08    299.38071       107143    599.34665   0.81907956   -890.01699    2455.5795    1060.0222    642.16656    95.851181    -262.5917    207.22758   -247.48756    299.39414 
539300000    5.393e+08    303.11516       107143    416.50602   0.81907956    -1073.705    2313.6242   -24.220976    657.10192     616.6371    -429.9744   -213.89763    5.2754785    303.12927 
539400000    5.394e+08    295.21052       107143    917.66228   0.81907956   -932.66756    2366.3268    822.48784    118.82187    1811.6771    -7.253038    741.17658    38.893216    295.22357 
539500000    5.395e+08    296.67218       107143   -2.6765355   0.81907956   -1010.1583    2305.1702    1093.7307   -513.72591   -588.03439   -350.87003    56.819885   -1252.7793    296.68639 
539600000    5.396e+08    293.16527       107143    201.99767   0.81907956   -1037.3388    2238.7998   -1.5899179    477.94714    129.63578   -283.81107    138.45596    775.05953    293.17911 
539700000    5.397e+08     292.7194       107143   -447.53708   0.81907956   -832.79231    2438.3636   -111.42062   -131.51998   -1099.6706    360.75624   -213.72311   -274.74005    292.73293 
539800000    5.398e+08    294.53999       107143   -289.17552   0.81907956   -938.21138    2353.2898   -224.56102   -691.20479    48.239258     229.6773   -401.73486    233.40577     294.5553 
539900000    5.399e+08    292.40296       107143    103.54576   0.81907956   -934.08089    2333.5389   -651.09597    342.81643    618.91683   -206.93912    896.97255   -112.96854    292.41465 
540000000      5.4e+08    287.28775       107143    32.575955   0.81907956   -933.98945    2276.4675    164.60695   -281.16035    214.28127    401.20764   -7.4319787   -15.331277    287.30245 
540100000    5.401e+08    296.20386       107143    176.02327   0.81907956   -1024.5154    2285.5796     730.8976   -442.78207    239.95427    319.62326    284.78573   -440.94626    296.21834 
540200000    5.402e+08    297.32477       107143   -464.24449   0.81907956   -1044.0144    2278.6069   -482.69007   -521.54429   -388.49911   -110.71364    -118.8843   -882.40604    297.33895 
540300000    5.403e+08     288.9215       107143    119.32768   0.81907956   -905.08734    2323.6269    868.64362   -188.90063   -321.75993   -138.49183    371.07786    366.69018    288.93436 
540400000    5.404e+08    295.58904       107143   -263.32854   0.81907956   -940.12897    2363.0953    49.510406   -587.09493   -252.40109   -188.83025    666.66565    230.56886    295.60169 
540500000    5.405e+08    288.72431       107143    50.305284   0.81907956   -914.24059      2312.27   -6.1494879   -68.283035    225.34837    160.64224    127.93923    601.81626    288.73829 
540600000    5.406e+08    291.37927       107143    770.85748   0.81907956   -917.03957    2339.1404    770.13757    807.82922    734.60566   -104.54461    -106.5149   -416.02497    291.39306 
540700000    5.407e+08    298.96613       107143    866.83864   0.81907956   -926.05077    2414.9127    804.98388    1050.8773    744.65474     131.9958     110.7451    -103.1766    298.98007 
540800000    5.408e+08    300.82793       107143   -173.42157   0.81907956   -970.58103    2391.1882    887.95944   -1025.4012   -382.82292   -260.13427    175.87767    62.013895    300.84145 
540900000    5.409e+08    292.32937       107143    40.793143   0.81907956   -918.30016    2348.4971   -297.37477    259.76237    159.99183   -84.042097   -185.61717   -281.43395    292.34342 
[...]
1490800000   1.4908e+09    284.57496       107143   -247.38534   0.81907956   -997.39192    2182.7494    1158.5162   -972.29552   -928.37675    135.52371    449.16729    115.53603    284.59744 
1490900000   1.4909e+09    293.92478       107143   -170.22594   0.81907956   -1071.7286    2212.8976   -763.42041    240.81789    11.924708   -613.60916   -300.27596    239.77024    293.94849 
1491000000    1.491e+09    294.99234       107143   -506.91576   0.81907956   -1019.0085    2277.5476   -1104.4015   -215.61265   -200.73317   -19.969325    -321.1797    460.66565    295.01629 
1491100000   1.4911e+09    286.06454       107143    718.17816   0.81907956   -1057.5628    2139.2246    1030.7904    781.40357    342.34047    508.35158    -530.4105    70.356745    286.08895 
1491200000   1.4912e+09    296.92234       107143   -77.284023   0.81907956    -1067.092     2251.032    704.61182   -569.58486   -366.87902   -457.91269    251.61189    84.846559    296.94575 
1491300000   1.4913e+09    299.80745       107143   -231.62199   0.81907956   -1006.7909    2343.5745   -116.62705   -460.45733    -117.7816    456.76177   -16.215314    344.24292    299.83186 
1491400000   1.4914e+09    292.34178       107143   -128.41187   0.81907956   -1125.0982    2141.8378    42.983804    502.00016   -930.21957   -203.04647    -84.96661    239.58932    292.36365 
1491500000   1.4915e+09    298.33721       107143    310.34261   0.81907956   -983.78321    2350.1521   -576.09079   -61.080006    1568.1986    139.40668    242.27714    355.28294    298.36265 
1491600000   1.4916e+09    293.90755       107143   -787.63301   0.81907956   -1073.9206     2210.513   -245.20569   -1167.5422    -950.1511     316.4268     356.0405   -916.35811    293.93154 
1491700000   1.4917e+09    283.83524       107143   -437.48944   0.81907956   -1056.5353    2115.3397    37.054286   -756.48374   -593.03886     22.92744    224.16075   -604.04154    283.85869 
1491800000   1.4918e+09    285.93151       107143   -544.17472   0.81907956   -1056.0192    2139.2817   -507.33712   -361.23071   -763.95635     261.1068   -119.31428    242.59058    285.95558 
1491900000   1.4919e+09    296.48473       107143   -39.794919   0.81907956   -1077.3779    2235.8558   -416.12316    601.93318   -305.19477    434.90971   -317.14582   -452.97117    296.50853 
1492000000    1.492e+09    296.33829       107143   -327.27747   0.81907956   -1030.5872    2281.0101    384.03152   -781.63173   -584.23221   -272.47216   -211.79702   -121.12432    296.36338 
1492100000   1.4921e+09    289.14503       107143   -28.397245   0.81907956   -1029.7373    2201.4748    246.30829    991.60214   -1323.1022   -620.44495   -134.63551    270.16348    289.16884 
1492200000   1.4922e+09    292.91469       107143    779.71849   0.81907956   -984.68943    2288.6489    1076.8173    213.11171    1049.2265    221.95856     536.7797   -360.64454    292.93764 
1492300000   1.4923e+09    295.19593       107143   -616.03733   0.81907956   -1122.1279    2176.7034   -1268.0516   -754.14102    174.08058   -30.229328    1.7823731   -162.63844    295.21936 
1492400000   1.4924e+09    295.55606       107143    88.000146   0.81907956   -1042.7588     2260.097    123.47732     26.15103    114.37209    303.16186    -1237.964   -645.40597    295.58027 
1492500000   1.4925e+09    292.30113       107143    14.914454   0.81907956   -1028.7944    2237.6873    202.89955    182.56855   -340.72474   -72.701499    121.82282    198.00876    292.32522 
1492600000   1.4926e+09    288.99109       107143    311.24779   0.81907956   -1000.2493    2229.2425    273.18725    196.68273    463.87339    467.04207    152.01425    298.57729    289.01414 
1492700000   1.4927e+09    289.95117       107143   -123.16088   0.81907956   -930.93721    2309.2836   -608.86627   -733.80882    973.19245    507.90773    120.35859   -462.73408    289.97389 
1492800000   1.4928e+09    293.74835       107143   -263.51866   0.81907956   -937.61092    2345.0437   -812.66192    127.83807   -105.73214    281.50743    45.840867   -848.06894     293.7728 
1492900000   1.4929e+09    291.11057       107143    820.29316   0.81907956   -943.14964    2310.0276    1174.2651    184.64403    1101.9703   -663.24026    -381.7183    59.353426    291.13481 
1493000000    1.493e+09    291.73659       107143   -297.33066   0.81907956   -1068.3826    2191.7904   -68.907607     219.7347   -1042.8191    333.54138    54.686418   -175.22453    291.76103 
1493100000   1.4931e+09    296.82463       107143   -407.55024   0.81907956   -978.51431    2338.5178    -466.0488   -430.25256   -326.34936   -189.68201   -6.6983166   -797.28582    296.84922 
1493200000   1.4932e+09     291.6941       107143   -663.50475   0.81907956   -975.09843    2284.5997    -840.3603   -944.21009   -205.94384   -511.92488     649.0803   -34.699811    291.71846 
1493300000   1.4933e+09    293.77695       107143    -169.1701   0.81907956   -1027.3607    2255.6134    163.41697    252.72985   -923.65712    700.15671    228.78935    33.508949    293.80018 
1493400000   1.4934e+09    296.21487       107143   -236.04447   0.81907956   -1009.8043    2300.4137   -1295.9705    509.07575    78.761298    211.12843   -578.33386   -70.842124    296.23829 
1493500000   1.4935e+09    294.94615       107143   -93.601547   0.81907956   -905.37393    2390.6661   -572.96739   -265.74944    557.91219   -287.30782   -24.433649    47.097135    294.97134 
1493600000   1.4936e+09    295.13717       107143    -243.0674   0.81907956   -1041.1268    2257.0478    336.31466   -89.722046   -975.79481    132.14743    610.01178   -114.69313    295.16298 
1493700000   1.4937e+09    294.78485       107143    360.17891   0.81907956   -1046.6854    2247.5521   -272.60675    686.30865    666.83483   -571.07535   -362.09852   -13.060775    294.80839 
1493800000   1.4938e+09    290.85551       107143     -681.846   0.81907956   -871.11635    2379.2105   -829.27099   -731.24413   -485.02288     361.7972    490.69232   -801.79791    290.88057 
1493900000   1.4939e+09    293.51497       107143    113.03105   0.81907956    -988.6016    2291.4449   -577.88842    1008.2025   -91.220891   -580.06954    197.04367    187.66839    293.53875 
1494000000    1.494e+09    292.91472       107143   -472.41078   0.81907956   -913.39184    2359.9468   -1206.1635   -490.80128    279.73246    236.41704   -682.94499    -77.07517    292.93778 
1494100000   1.4941e+09    294.41595       107143    448.73488   0.81907956   -983.52081    2306.5942    1094.2995   -292.06106    543.96623    731.23024   -101.38895     -238.716    294.44045 
1494200000   1.4942e+09    288.95663       107143    840.27289   0.81907956   -955.15957    2273.9472    841.48577    300.85836    1378.4745   0.74691026    334.59482   -450.23129    288.97931 
1494300000   1.4943e+09    294.68193       107143    225.81563   0.81907956   -1032.2499    2260.8374    68.789878     80.43756    528.21946   -352.88527   -467.71469    332.19266     294.7057 
1494400000   1.4944e+09    294.99018       107143   -493.63408   0.81907956   -1004.4364    2292.0957   -1062.7842   -520.36371    102.24563   -408.18437    59.254081    457.70199    295.01488 
1494500000   1.4945e+09    295.65819       107143    -165.8237   0.81907956   -1114.5812    2189.4159   -1077.0398   -462.87471    1042.4434    -651.2507     135.5016     766.8932    295.68149 
1494600000   1.4946e+09    287.48324       107143   -504.63436   0.81907956    -962.3186    2250.3229   -595.18582   -302.65714   -616.06011    47.567438   -253.65555     -475.399    287.50728 
1494700000   1.4947e+09    290.58528       107143    620.01864   0.81907956   -1042.7126    2204.5944    531.58992    272.43275    1056.0332   -80.144937    591.51963   -519.20798     290.6101 
1494800000   1.4948e+09    294.83575       107143   -689.45894   0.81907956   -1038.8263      2255.98   -1026.2346   -776.91349    -265.2287    597.16171   -543.62598    36.187498    294.86058 
1494900000   1.4949e+09     295.8232       107143   -332.68301   0.81907956   -972.47754    2333.3636   -666.41127    -8.767791   -322.86996   -224.80717    103.71284   -68.781036    295.84934 
1495000000    1.495e+09     300.2299       107143   -710.55246   0.81907956   -1054.1319    2300.9543   -693.67214   -879.54492   -558.44033    -156.6674    -218.4503   -187.43262    300.25446 
1495100000   1.4951e+09    291.16099       107143    42.470547   0.81907956   -1010.6384    2243.1023   -77.889808   -384.45277    589.75422   -93.326209     423.4138    -16.70629    291.18409 
1495200000   1.4952e+09    293.65607       107143   -505.48058   0.81907956   -984.40471    2297.2185   -650.28949   -538.97438   -327.17786   -278.79107    290.55679   -301.60251    293.67905 
1495300000   1.4953e+09    287.47238       107143   -570.33879   0.81907956   -1026.1529    2186.3673   -1095.0052    344.35807   -960.36927     59.90827    489.80695    298.09771    287.49579 
1495400000   1.4954e+09    288.04376       107143    675.38117   0.81907956   -1048.6525    2170.2529    260.48062    965.91722    799.74569    620.32643   -55.868919   -770.21869    288.06772 
1495500000   1.4955e+09    293.29315       107143   -276.38764   0.81907956   -1034.4213    2243.1464    462.55515     -983.909   -307.80907    165.92897    169.70835   -299.89106    293.31743 
1495600000   1.4956e+09    297.41852       107143   -180.98987   0.81907956   -1064.7033    2258.9656   -47.548309   -303.49862   -191.92268    326.89806    192.46554    314.06734    297.44182 
1495700000   1.4957e+09    294.58048       107143    101.08473   0.81907956   -1076.2386     2215.715    301.95258   -476.05141    477.35304   -541.81002    797.09522   -414.43168    294.60494 
1495800000   1.4958e+09    287.40174       107143    116.72494   0.81907956   -967.48488    2244.2459    28.109855    334.60742   -12.542453   -155.23284    354.37604   -224.69934    287.42578 
1495900000   1.4959e+09    301.67937       107143    141.09548   0.81907956   -1011.2657    2360.0185    418.19745   -477.69361     482.7826   -347.65292    5.6145707   -199.79749    301.70449 
1496000000    1.496e+09    289.95177       107143   -918.04387   0.81907956   -963.30745      2276.92   -842.18947   -803.45526   -1108.4869   -294.13953    304.78001   -84.945568    289.97857 
1496100000   1.4961e+09    296.89733       107143   -17.404181   0.81907956   -1037.4073    2280.4373   -115.90065   -160.67642    224.36453   -406.73596    191.17769   -611.15053    296.92219 
1496200000   1.4962e+09     292.2994       107143   -193.28692   0.81907956   -944.69546    2321.7669   -262.68018   -470.78937    153.60878   -400.64924    166.58839   -86.973833    292.32267 
1496300000   1.4963e+09    290.14307       107143     260.5457   0.81907956   -1050.5585    2191.8069    378.58267   -65.228817    468.28326   -410.82795   -308.02985   -191.44608    290.16799 
1496400000   1.4964e+09    297.85716       107143   -83.313296   0.81907956   -1018.6353    2309.9354    767.54259   -405.88318   -611.59929    249.16879    202.85046    345.10191    297.88202 
1496500000   1.4965e+09    279.66758       107143   -453.99856   0.81907956   -1067.7734    2057.5277   -695.32596    599.16635   -1265.8361     304.0572    -685.8437   -100.65665    279.69051 
1496600000   1.4966e+09    295.54996       107143   -428.54583   0.81907956   -960.23037    2342.5572   -870.62226   -299.60826   -115.40698   -96.681725   -129.19311   -211.59124    295.57321 
1496700000   1.4967e+09    293.81697       107143    169.96284   0.81907956   -976.90898    2306.5123   -311.03888    793.08232    27.845074    114.85816   -309.81273    454.02061    293.84178 
1496800000   1.4968e+09     288.6211       107143    30.215991   0.81907956    -1016.589    2208.7681   -606.75516    407.74373     289.6594   -228.80002     502.6456   -303.55268    288.64531 
1496900000   1.4969e+09    291.80176       107143    166.40378   0.81907956     -986.689    2274.2123    576.83806    186.35009   -263.97682   -541.51764    204.03341   -37.933146    291.82525 
1497000000    1.497e+09     287.3463       107143   -293.40179   0.81907956   -1071.5507    2139.5606   -90.767049    150.06542   -939.50373   -92.344092    64.717481   -195.66872    287.37015 
1497100000   1.4971e+09    297.96404       107143   -58.323611   0.81907956   -1008.6865    2321.0786    767.26166    -141.4458   -800.78669   -716.37859   -648.93428    354.81044    297.98972 
1497200000   1.4972e+09    293.30895       107143    232.46985   0.81907956    -1024.472    2253.2722   -410.17751    685.09889    422.48816     132.3166    418.31634    262.06239    293.33206 
1497300000   1.4973e+09    296.06818       107143    247.51425   0.81907956   -1030.7385    2277.8403      1095.18   -630.90431    278.26704    -276.5227    158.30862    -296.2504     296.0928 
1497400000   1.4974e+09    294.45655       107143   -212.81988   0.81907956   -1034.9736    2255.5952   -39.431961     -608.436    9.4083284    61.298796     286.5415   -441.15665    294.48029 
1497500000   1.4975e+09    290.46483       107143   -48.589327   0.81907956   -1003.1819     2242.779    720.18332   -160.96663   -704.98467   -451.82344    6.5726967   -78.527345    290.48841 
1497600000   1.4976e+09    287.40667       107143    625.31389   0.81907956   -1003.1873    2208.5985    824.07073    484.33212    567.53882    92.256141   -66.823625   -290.70813    287.42985 
1497700000   1.4977e+09    291.94586       107143   -261.90606   0.81907956   -1020.0612    2242.4504    915.85031   -938.69869   -762.86979    369.51221    58.005605   -465.10217    291.97079 
1497800000   1.4978e+09    289.18194       107143    255.26599   0.81907956   -943.27795    2288.3467    259.96247    186.35677    319.47872    10.459031    129.13842     222.7992    289.20589 
1497900000   1.4979e+09    291.34302       107143   -368.08571   0.81907956   -1063.7001    2192.0747   -814.25212   -285.06194   -4.9430727    303.71235     345.3228   -197.52776    291.36731 
1498000000    1.498e+09    288.02607       107143    107.46175   0.81907956   -975.17479     2243.533   -349.79355   -330.50407    1002.6829   -863.45996   -335.69141   -59.569667    288.04943 
1498100000   1.4981e+09    293.59012       107143    150.68833   0.81907956   -924.08929     2356.797   -530.24409     33.80113    948.50794   -366.96227    100.03484   -101.54582    293.61433 
1498200000   1.4982e+09    287.02489       107143    835.40577   0.81907956   -1106.1685     2101.351    949.27098     149.8056    1407.1407   -320.16178    518.87147   -95.967535    287.04703 
1498300000   1.4983e+09    298.75861       107143    259.00953   0.81907956   -1050.9067    2287.7377    121.38186    456.04419    199.60254   -249.06099    90.879716   -131.17559    298.78243 
1498400000   1.4984e+09    293.12364       107143   -587.58539   0.81907956   -974.92023    2300.7532   -1010.9171   -523.07995   -228.75914   -247.69813    -258.8731    118.77796    293.14845 
1498500000   1.4985e+09    294.75845       107143   -839.89209   0.81907956   -1064.9232    2229.0193    329.86484   -901.15958   -1948.3815     -609.156     351.5888   -595.62673    294.78204 
1498600000   1.4986e+09    286.18631       107143   -585.21646   0.81907956   -1069.2969    2128.8514   -436.75023   -529.01019   -789.88897    626.17889   -248.27354   -197.10626    286.21044 
14Generated thermo.dat
Done!
stress
average  20.9628
square average  456.646
number of blocks  140
variance  .35058131479831363897
pxx
average  12.37
square average  279.294
number of blocks  140
variance  .94972590030718111098
pyy
average  -36.0412
square average  1900.97
number of blocks  140
variance  2.07364741210126793201
pzz
average  -36.6855
square average  1912.06
number of blocks  140
variance  2.01110149234194543173
xx
average  2238.52
square average  5.01203*10^06
number of blocks  140
variance  2.74929809224099961000
yy
average  2155.02
square average  4.64436*10^06
number of blocks  140
variance  1.33309414521255774660
zz
average  2155.07
square average  4.64461*10^06
number of blocks  140
variance  1.42251060754267437955
xx
average  -1420.21
square average  2.01721*10^06
number of blocks  140
variance  1.23507055900231291776
yy
average  -1415.19
square average  2.00298*10^06
number of blocks  140
variance  1.24574676399338882649
zz
average  -1415.87
square average  2.00489*10^06
number of blocks  140
variance  1.20161528190776839598
pressure, stress.strain, ktensor, virial are all concatenated
averages computed will all accumulated data until now
98700000   1.4987e+09    293.86809       107143   -26.974903   0.81907956   -1014.0776     2269.915   -178.15801    584.12376   -486.89046   -455.70851   -171.83318   -227.85819    293.89207 
1498800000   1.4988e+09    293.63107       107143    -10.03328   0.81907956    -1046.275    2235.0689    456.09369     203.3578   -689.55134   -210.20657   -311.28233    402.40233    293.65425 
1498900000   1.4989e+09    290.07718       107143   -1048.1777   0.81907956   -993.82189    2247.8071   -1710.9141   -604.43482   -829.18425   -47.366376     165.3267    -446.9626    290.09995 
1499000000    1.499e+09    289.58384       107143    -372.2694   0.81907956   -952.38933    2283.7266   -475.41878   -728.89008    87.500679    98.157979   -1418.1483   -476.88902     289.6076 
1499100000   1.4991e+09    294.21984       107143     -383.988   0.81907956   -964.88426    2323.0392   -998.79604   -116.84186   -36.326108    278.60089    281.74371    285.69544    294.24384 
1499200000   1.4992e+09    289.61487       107143   -986.99647   0.81907956   -1059.2204    2177.2422   -899.40954    -1341.336    -720.2439    173.93915   -296.21215    -101.8356    289.63973 
1499300000   1.4993e+09    293.73414       107143   -257.45231   0.81907956   -910.01163    2372.4841   -362.31847   -558.44852    148.41007    478.90845   -51.887473     32.80159    293.75795 
1499400000   1.4994e+09     303.7711       107143   -294.60423   0.81907956   -1022.0376    2372.6217     139.4609    358.79983   -1382.0734    498.99469    630.43123   -410.66302    303.79615 
1499500000   1.4995e+09    298.20414       107143     309.1352   0.81907956   -999.42867    2333.0196    362.45098   -519.89769    1084.8523    32.795183   -712.49308    -266.8857    298.22766 
1499600000   1.4996e+09      290.699       107143   -201.96108   0.81907956   -1078.5971    2169.9808   -491.82524    811.34651   -925.40452    27.622577   -578.19828    88.932618    290.72309 
1499700000   1.4997e+09    292.24022       107143    -163.5241   0.81907956   -867.27375    2398.5274   -716.18854    216.04375    9.5724894    22.362319    283.99843    342.37307    292.26621 
1499800000   1.4998e+09     292.6459       107143    48.797298   0.81907956   -953.71418    2316.6203    378.38033    540.45896    -772.4474     409.1642    104.70374   -188.89345    292.67095 
1499900000   1.4999e+09    286.38301       107143    242.36936   0.81907956    -1111.887    2088.4594   -193.75229    893.54431    27.316061   -142.76521    199.45286    483.31513    286.40716 
1500000000      1.5e+09    291.66032       107143    771.82192   0.81907956   -953.22425    2306.0964    1086.4762    166.04171    1062.9478    105.63103   -61.748516   -193.05025    291.68357 
Loop time of 56729.1 on 48 procs for 200000000 steps with 3750 atoms

Pair  time (%) = 18704.9 (32.9723)
Bond  time (%) = 4108.24 (7.24185)
Neigh time (%) = 10202.6 (17.9848)
Comm  time (%) = 17252.9 (30.4128)
Outpt time (%) = 0.282286 (0.000497603)
Other time (%) = 6460.17 (11.3877)

Nlocal:    78.125 ave 87 max 65 min
Histogram: 1 1 1 5 7 12 4 6 5 6
Nghost:    1260.1 ave 1304 max 1227 min
Histogram: 2 6 7 5 11 7 4 2 3 1
Neighs:    5967.71 ave 6866 max 4827 min
Histogram: 1 1 6 4 5 13 4 8 3 3

Total # of neighbors = 286450
Ave neighs/atom = 76.3867
Ave special neighs/atom = 6.26667
Neighbor list builds = 22307697
Dangerous builds = 0
System init for write_restart ...

real	4731m46.380s
user	0m0.046s
sys	0m0.186s
