LAMMPS (10 Feb 2015)
Read molecule SQL:
  30 atoms with 4 types
  29 bonds with 1 types
  34 angles with 1 types
  31 dihedrals with 2 types
  6 impropers with 1 types
Reading restart file ...
  restart file = 28 Jun 2014, LAMMPS = 10 Feb 2015
  triclinic box = (111.252 111.252 111.252) to (158.748 158.748 158.748) with tilt (-2.54374e-12 0 0)
  3 by 4 by 4 MPI processor grid
  3750 atoms
  3625 bonds
  4250 angles
  3875 dihedrals
  750 impropers
250 atoms in group endatoms
Resetting global state of Fix shear1 Style nvt/sllod from restart file info
Neighbor list info ...
  1 neighbor list requests
  update every 1 steps, delay 0 steps, check yes
  master list distance cutoff = 10.3
Setting up run ...
WARNING: Inconsistent image flags (../domain.cpp:678)
Memory usage per processor = 5.69965 Mbytes
Step dummytim Temp Volume Press Density PotEng TotEng Pxx Pyy Pzz Pxy Pyz Pxz myT molPE1 molPE2 molPE3 molPE4 molPE5 molPE6 
101000000     1.01e+08    297.69016       107143   -454.25038   0.81907956   -866.61572    2460.0887    334.97775   -964.80629   -732.92262   -739.51569   -307.74753   -341.12142    297.72202   -4281.6678    1080.3566    1162.6239    1056.4249    115.64675            0 
101100000    1.011e+08    287.31058       107143   -1227.9738   0.81907956   -919.10656    2291.6055   -963.84803   -1260.8383   -1459.2349   -119.21299    60.243572    255.11691     287.3468   -4282.2751    1027.9193    1153.8569    1066.8387    114.55367            0 
101200000    1.012e+08    289.13371       107143   -172.40396   0.81907956   -827.95094    2403.1347   -436.08042    649.29517   -730.42662     463.7426    464.34559   -527.82501    289.15016   -4304.6541    1085.9923    1190.7952    1090.6798    109.23594            0 
101300000    1.013e+08     287.3733       107143    88.318422   0.81907956   -878.72487    2332.6881     84.09031   -311.47803    492.34299   -319.37043    504.11228    340.76399    287.39148   -4282.8349    1054.6836    1144.2337    1092.4301    112.76255            0 
101400000    1.014e+08    294.16205       107143    303.00628   0.81907956   -853.53352    2433.7441   -220.07249    728.02783    401.06351   -686.99244    463.74184    1076.0536    294.17679   -4294.7335    1110.2795    1165.9884    1062.4119    102.52025            0 
101500000    1.015e+08    290.23474       107143    375.02796   0.81907956   -935.96786    2307.4219   -881.23291    1348.3507    657.96614   -147.25309    106.45145     167.4798    290.26161   -4280.4456    1015.9905    1152.8336    1069.7729     105.8807            0 
101600000    1.016e+08    294.28877       107143    585.87213   0.81907956   -953.38389    2335.3099    426.72498    696.53414    634.35727   -301.43652    174.08016    481.33681    294.31929   -4294.0491     1026.944    1136.4506    1073.8873     103.3834            0 
101700000    1.017e+08    289.79685       107143   -424.01368   0.81907956   -839.23974    2399.2565   -274.21109   -251.68771   -746.14223    264.05545   -514.76199    162.99617    289.83415    -4284.704    1129.4904    1113.2363    1089.7517     112.9858            0 
101800000    1.018e+08    286.10027       107143   -101.47513   0.81907956   -901.36308    2295.8237    54.050543   -56.552143    -301.9238    319.82355   -188.98025    764.64291    286.11761   -4315.6332    1095.5343     1163.212    1049.1364    106.38749            0 
101900000    1.019e+08    288.20874       107143   -55.717761   0.81907956   -1009.0358    2211.7132   -315.51973   -200.11708    348.48353   -188.05509    387.62023   -86.308643    288.23419   -4291.5194    1054.8937    1116.9893     1004.432    106.16862            0 
102000000     1.02e+08    289.71628       107143    5.2243469   0.81907956   -958.81485    2278.7811   -198.73552    308.31828   -93.909722   -392.86728    13.679264    332.42019    289.73465   -4295.3032    1038.2384    1134.3307    1053.5825    110.33673            0 
102100000    1.021e+08    292.16169       107143    94.217662   0.81907956   -921.00285    2343.9207   -280.15967    641.25669   -78.444035   -124.90627    659.02642    37.757545    292.20413   -4300.7164    1057.5155    1116.7132     1093.251    112.23392            0 
102200000    1.022e+08    291.55123       107143   -350.87733   0.81907956   -969.86345    2288.2381   -287.35823   -528.32523   -236.94854     200.8069    169.49773    663.23116    291.58935   -4289.1974    1079.2149    1123.8071    1015.7349    100.57703            0 
102300000    1.023e+08    286.02636       107143   -315.52321   0.81907956   -840.27829    2356.0826   -1056.3138    42.748737    66.995395   -354.73344    243.90725   -226.02901    286.05609   -4282.7698    1097.9237    1155.1539    1084.0824    105.33155            0 
102400000    1.024e+08    299.46359       107143   -347.42449   0.81907956    -924.4805    2422.0422   -284.65339   -79.295732   -678.32435   -469.37006    78.860703    -56.75645    299.48583   -4291.5455    1060.6243    1117.0311    1083.2926    106.11697            0 
102500000    1.025e+08    284.19551       107143    489.93993   0.81907956   -872.95879    2302.9422   -227.78417    765.38623    932.21772   -290.54325     323.6157   -4.5388139    284.21867   -4287.1347    1042.5109    1147.9128     1114.988    108.76417            0 
102600000    1.026e+08    291.84225       107143   -838.49871   0.81907956    -917.1899    2344.1638   -672.23259   -724.35768   -1118.9058   -190.65538   -91.625243    400.53066    291.88088   -4290.2119    1049.8213    1133.6292    1079.9872    109.58428            0 
102700000    1.027e+08    299.44432       107143    1119.9363   0.81907956   -870.98736      2475.32    290.96172    1246.4967    1822.3505    367.33227    27.218034     266.9896    299.45883   -4303.1251    1058.8935    1187.1972    1069.7493    116.29776            0 
102800000    1.028e+08    295.21245       107143    466.04601   0.81907956   -840.65127    2458.3647    774.88947    182.16187     441.0867    475.68673    348.12666   -78.345664    295.22153   -4303.7363     1073.157    1179.6786    1093.8267    116.42278            0 
102900000    1.029e+08    294.83495       107143   -124.80696   0.81907956   -873.17141     2421.626     -355.113    435.54902   -454.85691   -424.69114    222.37191    576.49369    294.86077   -4289.5142     1058.211    1168.4498    1083.3467    106.33529            0 
103000000     1.03e+08    296.26994       107143    7.1876065   0.81907956   -884.25919    2426.5742    308.29984   -935.43105    648.69403   -589.04197    114.49932   -366.43954    296.29359   -4287.9081    1064.5545     1149.403     1083.679    106.01245            0 
103100000    1.031e+08    287.74544       107143    88.152131   0.81907956   -906.33277    2309.2389   -813.40711     581.5314     496.3321   -43.592449    241.78716   -238.97886      287.781   -4301.0599    1031.3171    1190.4111    1063.9212    109.07777            0 
103200000    1.032e+08    296.59821       107143    417.81969   0.81907956   -937.86726    2376.6346    709.40863    777.07547   -233.02502   -200.83429    258.42148   -198.68683    296.63678   -4300.9242    1055.6862    1120.7066    1079.4782    107.18589            0 
103300000    1.033e+08    290.50938       107143    189.26177   0.81907956   -821.46187     2424.997    67.719333    993.95194   -493.88597    256.95006    63.126656    6.9219195    290.51163    -4288.038    1101.1484    1145.3701    1098.9989    121.05873            0 
103400000    1.034e+08    291.50215       107143    633.10289   0.81907956   -946.56421    2310.9888    839.78509    1164.8113   -105.28776    207.86837   -29.155916   0.87443767    291.51816   -4289.4233    1025.6185    1135.1656    1073.3235    108.75152            0 
103500000    1.035e+08    293.58748       107143   -292.40756   0.81907956   -935.36834    2345.4885   -114.10763    124.92597   -888.04102   -319.06645    295.93296    267.46926    293.61484   -4299.6945    1050.7073    1121.4324     1085.159    107.02746            0 
103600000    1.036e+08    295.57675       107143    256.93921   0.81907956   -939.30546    2363.7816     503.1516   -330.92298    598.58899    -986.6919    360.76398   -818.73169    295.61158   -4297.5371    1028.8855    1146.5529    1074.2558    108.53755            0 
103700000    1.037e+08    295.63893       107143   -515.64738   0.81907956   -880.57272    2423.2092    288.37902   -1114.9272   -720.39398    5.7903194   -113.83354   -200.07187    295.64526    -4278.061    1046.1147    1120.1844     1131.017     100.1721            0 
103800000    1.038e+08    294.45978       107143   -484.81905   0.81907956    -884.9654    2405.6394   -651.71527   -249.58715   -553.15474   -735.49541    60.585056   -165.28349    294.47676   -4274.6775     1079.676    1147.5667    1055.5725    106.89695            0 
103900000    1.039e+08    293.10079       107143   -225.73312   0.81907956   -885.40118    2390.0168   -136.22581   -618.05825    77.084697   -938.75393    630.93226   -7.5615016    293.12411   -4294.1364     1069.291    1144.2758    1084.8192    110.34921            0 
104000000     1.04e+08    296.76499       107143   -710.54515   0.81907956   -949.46484    2366.9008   -1203.2415    14.031778   -942.42577   -377.35222    -41.96502   -162.35775    296.77287   -4273.7229     1043.006    1119.8464    1054.3584    107.04715            0 
104100000    1.041e+08    292.73493       107143   -733.80649   0.81907956   -924.25001    2347.0795    -1111.753   -535.26082   -554.40564   -645.25676   -417.25231   -639.72768    292.76927   -4316.5584    1063.3986    1107.3745    1106.5086    115.02667            0 
104200000    1.042e+08    296.48199       107143    513.77243   0.81907956   -928.43882    2384.7643    1021.2895   -164.09302    684.12081   -269.16765    53.904495   -251.75387    296.51073   -4254.6763    1027.8927     1121.896    1066.7895    109.65926            0 
104300000    1.043e+08    292.36904       107143    113.21419   0.81907956   -897.36996    2369.8707    143.03267   -247.80568    444.41559   -392.04351    329.21976     271.9451    292.39481   -4305.7535    1087.6122    1147.5524    1060.7802    112.43873            0 
104400000    1.044e+08     293.6852       107143   -81.573931   0.81907956   -958.22597    2323.7228    118.35518   -264.53828   -98.538692   -561.00813    393.95505   -147.37108    293.71401   -4299.0364    1034.0801    1149.6814    1042.7058    114.34326            0 
104500000    1.045e+08    291.21965       107143    145.56654   0.81907956   -929.43246    2324.9637    -86.95768    384.32002    139.33727   -302.27035   -613.30906    618.80771    291.23455   -4286.5888     1009.454    1158.9723    1076.4528    112.27725            0 
104600000    1.046e+08    290.66002       107143   -487.50859   0.81907956   -866.31914    2381.8231    620.78541   -978.13035   -1105.1808    199.16996   -169.95027   -392.10832    290.68248     -4264.66    1033.5573    1135.7086    1120.5818     108.4932            0 
104700000    1.047e+08    293.00762       107143   -492.64308   0.81907956   -851.16296    2423.2139   -64.978868   -911.81757   -501.13282   -488.21696    14.731839    27.303653    293.02721   -4297.0831    1067.2445    1170.5919    1097.6836    110.40015            0 
104800000    1.048e+08    296.07792       107143   -15.054208   0.81907956    -907.1335    2401.5541   -381.74336    646.25003    -309.6693   -44.024399    319.84042    -520.8444    296.11801   -4282.6945    1070.1475    1138.0774    1068.5064    98.829711            0 
104900000    1.049e+08    289.78405       107143    268.39417   0.81907956   -934.54489    2303.8084   -47.011275    192.36024    659.83355    60.191503    62.925653     970.4001    289.81826   -4277.1704    1022.8696    1140.4919    1070.6509    108.61308            0 
105000000     1.05e+08    294.08167       107143   -269.74845   0.81907956   -862.36596    2424.0134    490.78461   -861.19842   -438.83153   -64.801238    378.84175    1001.4863    294.10191   -4274.1045    1030.2552    1163.2868    1099.8975    118.29907            0 
105100000    1.051e+08    290.84276       107143   -318.09003   0.81907956   -833.11935    2417.0651   -657.58286    401.16243   -697.84967   -102.97593    186.12153     148.3079    290.85866   -4275.7413    1105.0188    1140.7827    1084.8658    111.95466            0 
105200000    1.052e+08    295.08685       107143   -394.83606   0.81907956   -904.48259    2393.1297   -397.59926   -684.47493   -102.43399    731.40026   -338.21656    54.334448    295.10838   -4285.0892    1075.3223    1136.5911    1066.1497    102.54352            0 
105300000    1.053e+08    297.66971       107143    839.74201   0.81907956   -899.04742    2427.4285    1273.1859    431.89516      814.145   -982.83255   -101.75168     -68.3625    297.69655   -4259.3295    1076.7636    1141.7251    1023.4345    118.35881            0 
105400000    1.054e+08    292.49828       107143    100.45653   0.81907956   -896.29047    2372.3945   -100.37884    80.409961    321.33846   -583.18464   -47.549765    -586.6149    292.51926   -4265.2565    1098.3852    1084.8187     1081.255     104.5072            0 
105500000    1.055e+08    290.48087       107143   -481.75468   0.81907956   -845.44253    2400.6977    526.39783    -1279.286   -692.37586    586.47047   -171.38133   -118.27073     290.5021   -4269.4132    1044.4029    1174.6286    1087.0851    117.85408            0 
105600000    1.056e+08    299.37156       107143    145.39109   0.81907956   -857.59976    2487.8944    428.71783    267.03441   -259.57898   -354.32123   -294.34895    279.05514    299.42025   -4270.2872    1047.2372     1173.075    1072.3017    120.07362            0 
105700000    1.057e+08    288.19932       107143    257.30712   0.81907956   -841.44056    2379.2032    483.29122   -8.9231599    297.55331    29.244109    -303.9002   -287.02811      288.215   -4282.4265    1129.8321    1096.9602    1111.3432    102.85053            0 
105800000    1.058e+08    295.26951       107143   -28.996694   0.81907956   -939.59158    2360.0619    246.08908   -928.87566     595.7965   -366.57281    283.89437     476.1878    295.28867   -4263.5135    1026.0208    1119.6285    1067.0896    111.18303            0 
105900000    1.059e+08    296.66423       107143   -178.06138   0.81907956   -884.98941    2430.2503   -641.43688    421.77355   -314.52082    166.00775   -134.06502    506.51269    296.67715   -4269.8262    1070.8468    1110.9529    1081.9878    121.04924            0 
106000000     1.06e+08    298.30777       107143   -222.03758   0.81907956    -924.3715    2409.2348    115.33543   -1147.0977    365.64955   -596.05912    216.34424    365.05894    298.34797   -4254.8133    1013.1432    1146.2293    1067.4342    103.63513            0 
106100000    1.061e+08    299.95526       107143    74.375543   0.81907956   -907.85233    2444.1648    136.93213   -514.96134    601.15584    651.39788    174.09307   -209.26573    299.98321   -4285.7269    1057.5137      1135.49    1075.6924    109.17845            0 
106200000    1.062e+08    293.21054       107143    578.10065   0.81907956   -927.18166    2349.4628    549.20406    1020.1757    164.92215   -255.03969   -692.93542   -413.74049    293.23616   -4274.3545    1032.5422    1130.3053    1075.4752     108.8501            0 
106300000    1.063e+08    297.54476       107143   -94.962945   0.81907956   -844.28785    2480.7918    28.784582   -709.72922     396.0558   -285.64545   -296.02867   -373.58888      297.563   -4281.7719    1044.2953    1212.9967    1069.8696    110.32234            0 
106400000    1.064e+08    292.58503       107143    418.48477   0.81907956   -905.89173    2363.7626    765.65438    684.92083    -195.1209   -388.71432     176.1752   -316.38352    292.60894   -4274.1015    1050.7617     1112.523      1099.32    105.60505            0 
106500000    1.065e+08    288.46863       107143   -179.53228   0.81907956   -898.40632     2325.247    363.55287   -1227.3873    325.23762     801.8125   -19.047292   -488.13586    288.48258   -4301.5417    1050.5621    1150.8979    1094.9914    106.68392            0 
106600000    1.066e+08    289.75765       107143    602.61976   0.81907956   -778.77245    2459.2857    70.499244    1188.0812    549.27882   -817.76479    45.032336    475.54943    289.78364   -4269.1493    1094.0075    1121.6932    1173.0935    101.58253            0 
106700000    1.067e+08    289.95904       107143    186.21527   0.81907956   -953.01118    2287.2976    442.00153   -55.959866    172.60416    671.80309   0.75250752    167.01674    289.97695   -4278.8722    1065.6228    1073.6962    1081.2241    105.31792            0 
106800000    1.068e+08    289.62541       107143     326.8363   0.81907956   -965.75371    2270.8267   -180.83838    1110.7531    50.594236   -87.777729    459.03762    261.28644    289.63442   -4298.0341    1036.6557    1157.4475    1025.2613    112.91586            0 
106900000    1.069e+08    292.85456       107143   -568.17705   0.81907956   -850.82969    2421.8367   -598.08199    -347.3362   -759.11296    733.23066    106.73107    159.60059    292.86867   -4295.9587     1066.269    1137.2336    1137.5848    104.04163            0 
107000000     1.07e+08    290.68449       107143   -336.17463   0.81907956    -943.0234    2305.3923   -1311.6146    712.32932   -409.23859   -443.58106    178.15641    361.28892    290.70664    -4322.756    1048.4038    1154.5217    1059.7634     117.0437            0 
107100000    1.071e+08    290.54483       107143    274.90424   0.81907956   -908.78871    2338.0663    27.980024   -58.886572    855.61928   -121.49108    344.61167    137.15634    290.56916   -4279.9799    1035.2512    1132.3176    1097.2009    106.42148            0 
107200000    1.072e+08    288.19753       107143     656.0494   0.81907956   -929.02113    2291.6027    811.44275    47.444991    1109.2605       509.55   -366.39413    127.18528    288.20431   -4296.2769    1028.5123    1171.1774    1055.3278    112.23822            0 
107300000    1.073e+08    299.61615       107143   -108.56715   0.81907956   -859.24352     2488.984    24.592096   -771.10216    420.80861   -526.04247    422.82898     715.9645    299.63628   -4295.9797    1101.9156    1132.2824    1088.8158    113.72223            0 
107400000    1.074e+08    286.68063       107143   -538.25544   0.81907956   -829.81598    2373.8563   -1190.4539   -312.36083   -111.95155   -287.31434    225.17593    857.47747     286.7201   -4264.2201    1042.4931     1176.181    1099.4402    116.28983            0 
107500000    1.075e+08     288.7292       107143    109.27713   0.81907956   -849.17952    2377.3857   -281.94983    326.68186    283.09936    240.20338     152.4415   -693.93754    288.76718   -4298.6913    1050.3541     1196.617    1092.8286    109.71202            0 
107600000    1.076e+08     289.8129       107143    649.06533   0.81907956   -800.62137    2438.0543    1058.4507   -117.02382    1005.7691    228.55345   -38.259477    243.42851    289.84009   -4266.0756    1092.6366    1146.3633    1118.8744    107.57999            0 
107700000    1.077e+08    290.41697       107143    306.12435   0.81907956   -887.75821    2357.6679   -195.95874    713.26807    401.06371    18.174346   -400.77167    488.11785      290.448   -4300.8367    1086.8058    1133.0186    1082.7879    110.46617            0 
107800000    1.078e+08    297.93612       107143   -42.998138   0.81907956   -867.59243    2461.8607    226.37516   -180.13657     -175.233   -279.61473   -854.35824    737.78646    297.95895   -4278.8898     1076.469    1159.0267    1070.1888     105.6129            0 
107900000    1.079e+08    293.60027       107143    136.02477   0.81907956   -933.71543    2347.2843     68.71885   -380.35809    719.71354   -289.81226   -177.35813   -206.03479    293.61624   -4286.6987    1070.8022    1138.2058    1044.7422    99.233226            0 
108000000     1.08e+08     297.0461       107143    -241.4465   0.81907956   -848.79848    2470.7086   -432.08203    207.61905   -499.87652   -609.50675   -657.88018    674.07868    297.05056   -4264.6764    1078.3238    1168.9831     1051.119    117.45202            0 
108100000    1.081e+08    294.93104       107143   -769.35181   0.81907956   -977.47406    2318.3971    -937.2354   -1131.5574    -239.2626   -272.96699   -84.122871    -232.6524    294.94029   -4315.0594    1074.2153    1112.6023    1046.1296    104.63809            0 
108200000    1.082e+08    291.87006       107143    173.67933   0.81907956   -888.57438    2373.0902    448.30614    96.095206   -23.363364   -251.08603   -211.38783    112.65974    291.89168   -4280.6981    1063.0146    1111.1005    1108.0687    109.93999            0 
108300000    1.083e+08    292.32108       107143    357.71251   0.81907956   -913.06347    2353.6412    413.19153   -43.894472    703.84048   -81.209304    401.28676    769.42169    292.32751   -4303.5443    1023.0561    1164.6224    1086.4949    116.30742            0 
108400000    1.084e+08    294.72967       107143   -342.66083   0.81907956   -886.11138    2407.5094    -420.3225   -572.20985    -35.45013   -192.32647    394.85117    358.77353    294.74958   -4268.5669    1057.7886    1120.0256    1092.6994    111.94191            0 
108500000    1.085e+08    290.08902       107143    109.33319   0.81907956   -885.75702    2356.0043    961.17506   -403.29584   -229.87965   -99.857531    222.65832    407.78931     290.1274   -4274.9116    1033.0016    1157.9718    1074.5802    123.60096            0 
108600000    1.086e+08    294.30776       107143    31.125241   0.81907956   -916.91888    2371.9871    291.53935   -42.328718   -155.83491    -326.8695   -675.25296   -74.086709    294.30401   -4298.2775    1017.3464    1186.3482    1071.6736    105.99034            0 
108700000    1.087e+08    288.39479       107143    -659.8353   0.81907956   -874.51055    2348.3176   -350.90029   -333.33361    -1295.272   -289.10907   -759.10312    46.308878    288.39577   -4264.8143    1043.0517    1150.1958    1089.2219    107.83436            0 
108800000    1.088e+08     297.3211       107143    741.01959   0.81907956   -868.20505    2454.3752    497.09064    698.84517     1027.123     184.5077   -261.75475   -180.11928     297.3182   -4250.8945    1039.9426    1142.4958    1089.4072     110.8439            0 
108900000    1.089e+08    292.73955       107143    933.91399   0.81907956   -898.51342    2372.8677   -52.989311    775.68018    2079.0511    -233.5554   -417.27974    202.62563    292.78118   -4283.7562    1083.4219    1157.0989    1032.6358    112.08625            0 
109000000     1.09e+08    291.69893       107143     472.1082   0.81907956   -965.26463    2294.4875    208.90126    538.24523    669.17811    808.70964   -340.87435     665.9476    291.71836   -4291.3332    1045.7563    1092.7739     1073.976    113.56228            0 
109100000    1.091e+08    292.96808       107143   -602.88103   0.81907956   -837.83826    2436.0967   -620.90017    -531.1737   -656.56923    -545.9593   -183.42923    159.74903    292.98561   -4283.2018    1069.9383    1186.9069    1068.0666    120.45171            0 
109200000    1.092e+08    287.86718       107143   -487.37457   0.81907956   -924.03583    2292.8963   -1135.4203    271.26304   -597.96641   -432.96353    689.96809    169.64861    287.90139   -4269.5088    1082.4224    1095.8877    1057.6015    109.56138            0 
109300000    1.093e+08    289.52783       107143    204.22166   0.81907956   -869.23592    2366.2541    290.01463    -290.1443    612.79463   -771.29802    349.69725    517.06099    289.53413   -4283.2353    1076.6208     1111.739    1123.3907    102.24887            0 
109400000    1.094e+08    292.16872       107143   -286.17672   0.81907956   -926.54896    2338.4531    113.66762   -456.84168    -515.3561    511.78196   -350.11254   -320.98741    292.19188   -4288.6047    1029.7465    1148.4432    1066.2633     117.6029            0 
109500000    1.095e+08    295.88844       107143   -387.57084   0.81907956   -938.54834    2368.0218     254.5861    -374.8135   -1042.4851    359.81483   -119.45585   -805.48538    295.90324    -4283.327     1029.975     1145.221    1066.6711    102.91162            0 
109600000    1.096e+08    295.40565       107143    112.90136   0.81907956   -887.64051    2413.5345   -67.659433    604.18536   -197.82184    109.54324   -306.61624    103.11683    295.45291   -4263.5689     1071.979    1113.0337    1079.5628    111.35289            0 
109700000    1.097e+08    291.99533       107143   -137.28255   0.81907956   -918.91763    2344.1468   -389.32318    826.24117   -848.76565    428.16323    34.049191   -323.67149    292.00199   -4292.5982    1041.8392    1136.9301    1087.5974    107.31378            0 
109800000    1.098e+08    292.77777       107143   -43.349841   0.81907956   -889.00532     2382.803    14.834025    15.002505   -159.88605    142.52418    353.30786    68.742579    292.79963   -4280.5051    1059.6794    1144.7831    1085.3535    101.68377            0 
109900000    1.099e+08    291.71484       107143    -670.0231   0.81907956   -951.48898     2308.441   -900.25544   -67.468687   -1042.3452   -697.46895   -260.21213    362.40447    291.74094   -4311.6588    1033.8485    1117.3507    1103.9254    105.04523            0 
110000000      1.1e+08    296.25702       107143   -100.86529   0.81907956   -865.73022    2444.9588    705.59262   -556.47882   -451.70968   -223.29705    -499.5139   -4.7238123     296.2862   -4265.3379    1068.6364    1130.0542    1088.2917    112.62547            0 
110100000    1.101e+08     294.8415       107143   -577.82379   0.81907956   -849.91057      2444.96   -280.65952   -978.75708   -474.05477   -926.23864    77.729695    282.51548    294.86666   -4265.5886    1046.4003    1161.4998    1095.9878     111.7901            0 
110200000    1.102e+08    290.15992       107143   -279.00221   0.81907956   -781.64588    2460.9077   -997.45576   -728.84499    889.29411   -586.45852   -622.65109    29.379236    290.17323   -4278.9367    1104.3765    1190.3894    1089.3348     113.1901            0 
110300000    1.103e+08    300.25998       107143    999.63773   0.81907956   -910.92958    2444.4927    842.73254     1517.902    638.27868    290.02185   -313.05292   -832.88688    300.28102   -4287.2808    1037.2886    1150.8169    1071.6603    116.58534            0 
110400000    1.104e+08    294.82267       107143    155.78802   0.81907956   -843.88147    2450.7786   -332.48779    673.32467    126.52719   -3.9011862    796.68698    256.84759    294.84179   -4306.1457    1062.1369    1156.1478      1126.21    117.76946            0 
110500000    1.105e+08    299.97284       107143    721.81815   0.81907956   -965.83113    2386.3825    696.81623     1140.656    327.98225    63.151858   -369.54266   -186.73141    299.98746   -4297.7353    1042.3869    1135.4516    1036.9193    117.14645            0 
110600000    1.106e+08    291.53069       107143    7.7769262   0.81907956   -904.88544    2352.9866   -10.881564     312.8445   -278.63216    398.33395    216.05715    -185.1721    291.54682   -4266.6438    1061.4222    1114.7752    1078.3142    107.24686            0 
110700000    1.107e+08    297.02249       107143   -428.80045   0.81907956   -896.01956    2423.2236    70.327126   -898.30008   -458.42841     115.0838    121.07079    145.09005    297.03815   -4263.8308    1053.4196    1153.4749    1052.5196    108.39712            0 
110800000    1.108e+08    294.47777       107143   -486.88676   0.81907956   -850.67673    2440.1291   -694.96219   -27.668575   -738.02952   -63.286124   -321.50051    285.34431    294.50266   -4287.2256     1096.078    1161.6597    1069.9674    108.84374            0 
110900000    1.109e+08    292.06655       107143   -231.73782   0.81907956   -866.78005    2397.0802   -984.43255   -322.82557    612.04468   -51.950287   -461.96863   -46.382675    292.09664   -4288.7182    1080.1308    1143.8907    1089.4636    108.45296            0 
111000000     1.11e+08    296.05835       107143     302.3089   0.81907956   -898.71675    2409.7522    11.263673   -117.49932    1013.1623    405.26878    500.88951   -81.104315    296.05818   -4288.6023    1086.0358    1125.9168    1064.8885    113.04446            0 
111100000    1.111e+08    288.58464       107143   -163.97515   0.81907956   -940.12423    2284.8255    335.98417   -6.5382865   -821.37135   -669.83999   -295.77512    439.72696    288.61923   -4307.5358     1014.882     1147.955    1090.7728    113.80171            0 
111200000    1.112e+08    288.63214       107143     745.0041   0.81907956   -914.10677    2311.3738    573.15137     192.2992    1469.5617    221.85433   -348.06434   -185.66439    288.64803   -4258.8027    1022.8724    1150.8667    1060.8006    110.15631            0 
111300000    1.113e+08    292.45115       107143    467.76472   0.81907956   -1038.4866    2229.6717     490.4995   -273.42194    1186.2166    203.84551    129.43823   -713.31318     292.4889   -4294.8158    993.27691    1132.6844    1024.0391    106.32883            0 
111400000    1.114e+08    302.32977       107143    -334.0939   0.81907956   -890.39025    2488.1622    67.787252   -502.10024    -567.9687    39.896131   -31.263522    385.51235    302.35503   -4284.0468    1051.2771    1181.2005     1047.447    113.73183            0 
111500000    1.115e+08    294.38335       107143   -77.948094   0.81907956   -994.11488    2295.6358    160.66023   -743.67773    349.17323   -584.81826    71.297821    103.89117    294.40882   -4297.2074     1042.273    1138.9058    1020.1606    101.75312            0 
111600000    1.116e+08    285.76468       107143   -930.45306   0.81907956   -864.72629    2328.7103   -443.56201   -1126.2561   -1221.5411   -91.631089    523.32066   -254.61532    285.79618   -4285.1212    1072.6908    1165.3704    1068.0564    114.27733            0 
111700000    1.117e+08    301.38399       107143   -687.63815   0.81907956    -1011.019    2356.9642    -1328.614   -461.89383   -272.40659   -1157.6119    456.78075   -207.28665      301.376   -4309.0617    1052.2774    1083.3175    1062.7438    99.703894            0 
111800000    1.118e+08    290.10093       107143   -313.78645   0.81907956    -844.2476    2397.6468   -798.77618   -315.30712    172.72393   -4.9847171   -1.2236778    19.886673    290.13875   -4285.1218     1061.034    1174.8223    1094.1464     110.8715            0 
111900000    1.119e+08    293.96427       107143    -31.85277   0.81907956   -945.42984    2339.6376   -45.698825   -340.03951    290.18002   -339.97888    328.83063   -274.23781    293.99519   -4273.9323    1046.4071    1105.4681    1071.8552    104.77203            0 
112000000     1.12e+08    294.03366       107143    348.19548   0.81907956   -877.50132    2408.3416   -12.215351    880.72142    176.08037    1036.5641    613.70629   -435.82413    294.04203   -4266.9389     1068.073    1171.5036    1038.4854    111.37557            0 
112100000    1.121e+08    295.23483       107143   -308.33319   0.81907956    -983.8862    2315.3798     -394.577    -707.0727    176.65013    -508.2064    79.431618    -176.9193    295.23867   -4290.6208    1033.1558    1131.8802    1036.7124    104.98618            0 
112200000    1.122e+08    293.01418       107143   -49.283067   0.81907956   -972.18051    2302.2697   -65.684642    82.993139    -165.1577    443.44794     -636.023   -275.41521    293.01259   -4295.8356    1050.4596    1131.4941    1030.8634    110.83803            0 
112300000    1.123e+08     289.1868       107143   -139.83309   0.81907956   -977.41956    2254.2593   -41.274122   -185.68992   -192.53521    807.75661   -20.340654     -198.009    289.22037   -4297.8025    1042.4472    1130.1173    1035.6979    112.12057            0 
112400000    1.124e+08    292.33361       107143   -398.83971   0.81907956   -919.24493    2347.5998   -363.43121   -384.84813    -448.2398   -348.65294    -484.7413    -60.44117    292.34268   -4296.3081    1058.0314    1140.6155    1066.8832    111.53307            0 
112500000    1.125e+08    298.25725       107143   -469.00036   0.81907956   -879.62731    2453.4144   -945.08158   -566.04792    104.12842   -500.67096    207.55603   -281.89634    298.27897   -4297.8685    1049.7603    1205.6414    1054.2607    108.57886            0 
112600000    1.126e+08    290.20736       107143    640.95731   0.81907956   -903.40712    2339.6767    1700.0716    423.98339   -201.18308   -346.72733    687.96139    333.22983    290.21251   -4290.5359    1053.7789     1186.928    1044.3933    102.02861            0 
112700000    1.127e+08    292.46086       107143    112.25338   0.81907956   -890.42654    2377.8402   -113.14756   -39.274663    489.18237   -230.83062   -162.44414   -301.17701    292.50307   -4273.9619    1078.1442    1140.6591    1041.0649    123.66721            0 
112800000    1.128e+08    297.06651       107143      134.873   0.81907956   -859.40841    2460.3267    239.55941   -365.67141    530.73101    7.5329246   -3.3944519   -277.98113    297.10695   -4302.1687    1067.5618    1195.1167    1066.7718    113.30997            0 
112900000    1.129e+08    293.46387       107143    384.26114   0.81907956   -846.79886    2432.6766    1149.9869    62.254666   -59.458144    554.64397    708.65145     229.1379    293.50505   -4291.4897    1141.6836    1116.9808    1080.3408     105.6856            0 
113000000     1.13e+08    288.99398       107143    725.87323   0.81907956   -800.77363    2428.7506    633.23815    718.06665    826.31488    156.80007   -575.71787   -981.94175    289.02618   -4287.4028    1111.0428    1131.0173    1125.1568    119.41232            0 
113100000    1.131e+08     288.4019       107143   -349.83069   0.81907956   -929.18654    2293.7211   -449.03818    245.22408   -845.67797    76.125243    579.38879   -73.179428    288.42154   -4285.6617    1043.9499    1132.0773    1066.2045    114.24342            0 
113200000    1.132e+08    294.30886       107143   -344.20288   0.81907956    -861.4797    2427.4386   -392.93127   -281.35963   -358.31773    54.209876   -74.545486   -173.00031    294.33121   -4285.3207    1054.3915    1182.5077     1083.337     103.6047            0 
113300000    1.133e+08     294.0765       107143   -779.37309   0.81907956   -858.59923    2427.7224   -980.92559   -600.39583   -756.79786   -17.965406   -31.071608    316.87887    294.09607    -4266.635     1064.035    1126.6262    1100.1548    117.21968            0 
113400000    1.134e+08    290.18148       107143   -112.88885   0.81907956   -814.49709    2428.2974    66.917266   -516.88131    111.29751    46.020378   -102.10008   -15.014523    290.20882   -4294.7274    1098.4847    1193.7296    1077.2802    110.73581            0 
113500000    1.135e+08    287.45426       107143   -403.10305   0.81907956    -952.9445    2259.3732   -1043.7982    65.403672   -230.91465   -446.21827   -33.105177    468.27195    287.48796   -4295.9279    1037.1793    1131.5642    1070.8942    103.34562            0 
113600000    1.136e+08    294.40373       107143   -168.97394   0.81907956   -808.71748     2481.261    282.71795    -664.8414   -124.79839   -1398.4714   -77.744121   -236.51761    294.42434   -4263.4842    1095.9785    1154.0074    1102.3822    102.39867            0 
113700000    1.137e+08    294.04767       107143    464.08699   0.81907956   -915.40044    2370.5989    887.59298    806.95549   -302.28748    -903.5432    215.88594    73.549906    294.07329   -4289.4961    1053.5382    1152.0242    1057.5364    110.99691            0 
113800000    1.138e+08    290.56288       107143    91.339586   0.81907956   -949.03245    2298.0243    329.19169   -470.94637    415.77343   -297.14171   -2.6976268   -464.83724     290.5593   -4283.7832    1034.6572    1137.6223    1057.0277    105.44358            0 
113900000    1.139e+08    297.00635       107143    127.32111   0.81907956   -922.40638    2396.6565    391.37284    22.711825    -32.12133    69.303357   -331.83768   -271.45887     297.0437   -4296.3628    1071.2993    1154.4669    1030.3736    117.81662            0 
114000000     1.14e+08    291.14377       107143   -180.73605   0.81907956   -918.97866    2334.5696   -215.86372   -653.55519    327.21075    370.44422    423.83048    -106.9411    291.16878    -4324.153    1055.0326    1170.3784    1057.9309    121.83243            0 
114100000    1.141e+08    291.96178       107143   -413.45757   0.81907956   -906.35398    2356.3355   -530.80247   -652.14499   -57.425245    131.05825   -23.664946   -122.79132    291.96858    -4267.431    1070.7597    1159.2747    1018.2822    112.76044            0 
114200000    1.142e+08     290.5366       107143    203.91423   0.81907956   -859.37387    2387.3892   -298.74215   -288.03571    1198.5205   -144.77519   -242.01353    25.047413    290.54734   -4271.8391    1077.3249    1131.6453    1095.7902    107.70489            0 
114300000    1.143e+08     291.7651       107143    1138.9594   0.81907956   -882.50289    2377.9887     1122.238    1604.9053    689.73478    408.60506    86.475788    38.225878    291.78273   -4315.8025    1083.9849    1155.6547    1087.8302    105.82987            0 
114400000    1.144e+08    297.66726       107143    275.68599   0.81907956   -964.95227    2361.4963    172.51466    582.76514    71.778153    -269.3084   -534.32836   -433.35363    297.68438   -4300.2011    1032.1035    1136.3258    1060.9565    105.86306            0 
114500000    1.145e+08    284.56652       107143   -199.76429   0.81907956   -905.52146    2274.5256   -10.730881   -230.36639    -358.1956   -55.107378    -324.9668  -0.85616049    284.58807   -4280.0707     1023.845    1137.2163    1103.2153    110.27267            0 
114600000    1.146e+08    289.85771       107143   -288.33106   0.81907956   -873.99847    2365.1779    226.26363   -1026.3803   -64.876513   -306.60657    397.09823    118.37688    289.87878   -4268.3604    1067.9456    1120.0308    1099.7666    106.61886            0 
114700000    1.147e+08    293.33603       107143    740.74183   0.81907956   -915.55939    2362.4874    1050.6262    838.57097    333.02831    481.80134   -110.84325   -289.37412    293.35182   -4260.9901    1094.7383    1098.7861    1039.3988    112.50742            0 
114800000    1.148e+08    295.67801       107143    452.18863   0.81907956    -866.4272    2437.7914    422.61783    921.43593    12.512129   -62.387481    288.63527    193.79725    295.70003    -4267.257    1077.3566    1154.8518    1056.8323    111.78909            0 
114900000    1.149e+08    294.30178       107143    148.34766   0.81907956   -809.96135    2478.8778    828.09511   -220.83263    -162.2195   -847.06097      88.4415    608.00498     294.3347   -4249.2829    1044.6382    1201.2632    1080.5087    112.91146            0 
115000000     1.15e+08    298.40016       107143    344.46206   0.81907956   -892.60894    2442.0298    282.65902    636.14968    114.57749    -441.1835    606.34742    168.09253    298.41296   -4283.2351    1117.5909    1115.4903    1045.1565    112.38848            0 
115100000    1.151e+08    294.19134       107143   -321.44035   0.81907956   -809.83031    2477.7747   -281.49226   -814.40165    131.57285   -769.07966    354.17807   -274.05941    294.20749   -4257.8383    1072.3283    1160.9358    1100.1776     114.5662            0 
115200000    1.152e+08    292.71656       107143     200.5534   0.81907956   -905.27645    2365.8478      313.237   -44.479872    332.90307   -680.82691   -145.12548   -39.239752    292.73321   -4289.4839    1077.2101    1156.6967    1038.3065    111.99413            0 
115300000    1.153e+08    288.41021       107143    156.13657   0.81907956   -894.29132    2328.7092    240.11066    52.694245    175.60482    83.539945     405.1445    94.481008    288.42686   -4308.1177    1024.9682    1220.5337    1058.2914    110.03309            0 
115400000    1.154e+08    294.19056       107143    580.81157   0.81907956   -895.87391    2391.7223    560.75025    765.54984    416.13462   -560.49176    148.42863   -435.78551    294.21292   -4281.7189    1052.1256    1139.1972    1086.8647    107.65753            0 
115500000    1.155e+08    291.40934       107143    375.27836   0.81907956   -935.86778    2320.6482    147.97482    967.36085    10.499398    74.411868    -34.05772    -267.4922    291.42655   -4285.5513    1050.8665    1126.3931    1054.6852    117.73869            0 
115600000    1.156e+08    291.79527       107143   -152.26829   0.81907956   -902.29153    2358.5372    177.91112    -134.5108    -500.2052     137.0986    379.58532    467.08036     291.7995   -4307.3114    1050.7644    1181.2167    1051.5365     121.5022            0 
115700000    1.157e+08    293.05717       107143    211.63532   0.81907956   -830.76327    2444.1672    649.54434   -130.69811    116.05974   -561.20862    434.71957   -477.02686    293.08879   -4307.0826    1119.5663    1182.5076    1063.7727    110.47277            0 
115800000    1.158e+08    288.37416       107143    310.72863   0.81907956   -895.74337    2326.8543    1228.0984   -949.11367    653.20119   -710.89688    233.36078   -657.61278    288.38887   -4278.9863    1063.1511     1130.978    1070.8735    118.24033            0 
115900000    1.159e+08     292.2274       107143    17.174526   0.81907956   -928.13394    2337.5239   -551.28456     546.5108    56.297339   -238.83702    153.48165   -500.57636    292.26735   -4294.6473    1071.9214     1096.209     1085.729    112.65401            0 
116000000     1.16e+08    299.02523       107143    197.97192   0.81907956   -799.84796     2541.776    -379.7581    611.93265     361.7412   -377.73281   -209.17102    699.07051    299.05381   -4292.5871    1125.5756    1126.0767    1131.1884    109.89843            0 
116100000    1.161e+08    293.65112       107143   -83.998125   0.81907956    -843.1355    2438.4324    18.034901   -182.16283   -87.866441    -208.0764    406.35757   -331.99374    293.66728   -4290.8859     1056.707    1172.2636    1110.1438    108.63608            0 
116200000    1.162e+08    293.93024       107143    82.410325   0.81907956   -906.59262    2378.0945     23.44754    318.21602   -94.432582   -159.03236   -144.59104   -282.41842    293.95776   -4304.0866    1071.5392    1162.0845    1056.1071    107.76319            0 
116300000    1.163e+08    287.80175       107143    -665.7839   0.81907956   -964.70949    2251.4914   -895.63265   -517.41682   -584.30223   -320.16375     252.8165   -289.73121    287.82916   -4291.3197    1034.1355    1149.4822    1032.9733    110.01921            0 
116400000    1.164e+08     293.5573       107143    605.07267   0.81907956   -870.85223    2409.6672   -176.08206    619.02666    1372.2734    -52.79758    -75.01604    -456.6237     293.5623   -4269.8815    1063.6091    1137.5018    1083.1361    114.78239            0 
116500000    1.165e+08    298.29596       107143   -297.69687   0.81907956   -921.24888    2412.2255   -890.70731    191.55677   -193.94006   -539.11244    -270.9629   -436.43365    298.32875   -4257.5928    1049.4837    1128.6139    1051.9118    106.33457            0 
116600000    1.166e+08    303.01837       107143    653.43651   0.81907956   -925.32095    2460.9266    480.82261    984.19225    495.29467    330.10293    298.68103    872.89877    303.03286   -4278.3269    1072.2764    1120.9422    1053.2153    106.57206            0 
116700000    1.167e+08    295.52428       107143   -256.33552   0.81907956   -900.01893    2402.4817    9.5021365   -212.01889   -566.48981   -173.24005   -243.13441    221.60433     295.5178   -4298.5129     1022.773    1154.3871    1108.6074    112.72635            0 
116800000    1.168e+08    294.87552       107143    132.83422   0.81907956   -915.95296    2379.2977    334.18308    1089.0585   -1024.7389    445.70147   -577.00196    112.77962    294.87172   -4270.1374    1036.9529    1128.9815    1081.7143    106.53568            0 
116900000    1.169e+08    298.69777       107143   -47.592804   0.81907956   -834.87119    2503.0934    155.53926   -725.18817     426.8705   -267.18466    248.64815   -139.55493    298.70704   -4267.3094    1031.9239    1181.3262    1094.4814    124.70665            0 
117000000     1.17e+08    289.72507       107143   -378.86628   0.81907956    -811.7451    2425.9491   -485.65178   -866.96466     216.0176   -134.07744     88.46497   -263.11023    289.73734   -4282.3896    1111.9928    1147.2731    1102.6669    108.71168            0 
117100000    1.171e+08    293.00246       107143    77.926348   0.81907956    -948.6935    2325.6256     129.7658   -248.23171    352.24495     214.3126    665.52531   -405.28135    293.03498   -4289.8602    1049.8708    1129.3792    1054.5141    107.40263            0 
117200000    1.172e+08    291.36853       107143    357.75383   0.81907956    -785.7282    2470.3317    1122.3155   -201.23485    152.18088   -408.97399     2.462379   -457.22292    291.40902   -4284.6583    1106.5121    1184.4369    1095.6538    112.32726            0 
117300000    1.173e+08    290.00776       107143  -0.89645154   0.81907956   -862.39339    2378.4598   -284.53861    149.26989    132.57936   -365.44884   -204.62838    218.98508    290.01721     -4289.54    1023.3054    1156.4519    1132.5096    114.87965            0 
117400000    1.174e+08    295.78091       107143   -643.39709   0.81907956    -905.5477    2399.8208   -724.36756   -434.17506   -771.64864   -552.44296    221.11854    551.81601    295.80418    -4279.651    1027.4191    1138.1848    1088.2223    120.27714            0 
117500000    1.175e+08    295.47774       107143    171.66287   0.81907956   -898.08317    2403.8973    587.21067    18.837766   -91.059827   -222.06877    916.12219    886.31319    295.50196   -4271.0016    1053.0267    1099.8436    1108.1312    111.91687            0 
117600000    1.176e+08    289.06459       107143    444.56354   0.81907956   -858.05455    2372.2587    401.09168    875.11478    57.484166   -247.54124   -501.82714   -456.96044    289.06918   -4282.9726    1039.1905    1167.4663     1104.733    113.52832            0 
117700000    1.177e+08    297.99534       107143   -923.97255   0.81907956   -845.53543    2484.5794   -737.95439   -636.29946   -1397.6638   -382.29783   -90.458941     237.8095    297.98268   -4273.0525    1112.6477    1150.9057     1055.249    108.71469            0 
117800000    1.178e+08    291.12187       107143   -554.77352   0.81907956   -846.91442     2406.389   -1110.6492   -609.14008    55.468751    650.44958   -192.22626    192.14495    291.13342     -4277.73    1066.4596    1166.2324    1076.0344    122.08921            0 
117900000    1.179e+08    298.85105       107143   -612.39504   0.81907956   -941.99752    2397.6799   -855.77466   -559.84897   -421.56148    772.19072   -495.31364   -467.58021    298.87224    -4269.209    1044.7562     1144.717    1028.3746    109.36377            0 
118000000     1.18e+08    294.77007       107143    660.89722   0.81907956   -898.56011    2395.5122    1108.9446   -128.83013    1002.5772   -438.83747    810.20549   -79.311192    294.77324   -4271.6494    1077.8402     1111.018    1082.0397     102.1913            0 
118100000    1.181e+08    288.97579       107143    350.36091   0.81907956   -834.19742    2395.1235    22.498638    380.99825    647.58585   -261.30836   -146.05647    561.67663    288.98318   -4279.6749    1085.3344    1178.9918    1071.0285     110.1228            0 
118200000    1.182e+08    300.87207       107143     -392.956   0.81907956   -819.21394    2543.0486   -931.92963   -383.39272    136.45436    11.486634   -501.40038    41.563496    300.88436   -4285.0999    1066.4798    1176.9972    1118.0361    104.37289            0 
118300000    1.183e+08    290.51571       107143   -457.32187   0.81907956   -819.52834    2427.0012   -977.24539   -91.364836   -303.35537    -223.3495    32.212345    65.708252    290.52075   -4231.0817    1045.6287    1153.1068    1102.0143    110.80366            0 
118400000    1.184e+08    296.04879       107143    88.125406   0.81907956   -880.38217    2427.9799   -8.1731935    475.19037   -202.64096    179.30853   -57.964335    1088.2612    296.08001   -4305.1978    1034.1482    1149.4324    1130.4456     110.7894            0 
118500000    1.185e+08    292.30225       107143   -328.49745   0.81907956    -907.6038    2358.8905   -920.30265   -761.42097    696.23127   -467.26534    -183.5286   -404.32616    292.34234   -4297.0368    1069.2114    1147.6192    1058.0882    114.51412            0 
118600000    1.186e+08    289.97573       107143    79.514069   0.81907956   -916.56496    2323.9303   -467.80243    315.53529    390.80935   -92.026234   -250.43356   -454.23028    289.97973   -4253.7237    1054.8433    1116.0169    1057.6549    108.64367            0 
118700000    1.187e+08    290.24092       107143   -206.24102   0.81907956   -991.97438    2251.4845   -351.29962    192.29394   -459.71737    96.986944    245.71932   -707.17276    290.25317   -4280.6786    1026.0656    1109.3884    1049.6093     103.6409            0 
118800000    1.188e+08    291.26181       107143    87.194452   0.81907956   -879.26108    2375.6062   -202.09435   -82.764733    546.44244   -323.70847    427.46685   -577.12066    291.28513   -4283.2318    1069.2917    1190.8762    1033.3147    110.48806            0 
118900000    1.189e+08     297.9086       107143    158.41418   0.81907956   -926.60017    2402.5454   -595.52475    946.43463    124.33267   -215.40171   -85.217445    81.793358    297.92466   -4288.2377     1054.815    1161.9056    1030.7208     114.1961            0 
119000000     1.19e+08    294.49986       107143   0.91287453   0.81907956   -904.02704    2387.0257   -277.16923   -226.55303    506.46088   -156.33444   -224.69936   -271.27697    294.51976   -4274.4036    1093.6645    1147.7151    1022.0645    106.93251            0 
119100000    1.191e+08     296.1293       107143   -221.86494   0.81907956   -965.33126    2343.9305    439.12145     232.6253   -1337.3416   -568.58038    158.41025   -172.91259    296.13984   -4269.6948    1002.5225    1138.1422     1056.872    106.82685            0 
119200000    1.192e+08    293.55457       107143     88.79194   0.81907956   -916.51882    2363.9702   -855.43179   -2.6196126    1124.4272    369.91818    964.17043    128.79039    293.56588   -4312.7299     1085.483    1165.3374    1025.4938    119.89686            0 
119300000    1.193e+08    301.22871       107143    987.68033   0.81907956   -861.25872    2504.9892    620.56689    1339.5985    1002.8756   -87.247544    -156.7677   -155.63605    301.26183   -4310.4317     1051.339    1180.5433    1098.6359     118.6547            0 
119400000    1.194e+08    292.39704       107143   -339.74761   0.81907956   -897.58875    2369.9649   -843.94782    322.31508    -497.6101    64.341153    254.51423   -32.033841     292.4108   -4316.2306    1076.3027    1148.3199    1080.6458    113.37337            0 
119500000    1.195e+08    293.32265       107143    16.856505   0.81907956   -854.07958    2423.8177    141.55053   -8.8070247   -82.173991    -215.0161    111.55791    -544.8329    293.33568   -4304.4706    1051.1334    1185.7059    1099.3624    114.18927            0 
119600000    1.196e+08    295.94937       107143   -604.52523   0.81907956   -941.71965    2365.5314   -458.17663   -819.89551   -535.50356   -234.15433   -111.53268   -674.20967    295.97078   -4314.6515    1062.4952    1117.0957    1086.1654    107.17554            0 
119700000    1.197e+08    290.44609       107143    364.21979   0.81907956   -868.20576    2377.5458    699.50765    29.623419    363.52832   -337.74086    362.07561   -99.914832     290.4599   -4290.6048     1109.827    1146.1625    1060.2015    106.20808            0 
119800000    1.198e+08    298.18558       107143    427.95975   0.81907956   -875.32966    2456.9111    505.87369    655.74629    122.25927    8.0699669    19.373648    317.12449    298.21549   -4290.2079    1072.4023    1187.0976    1043.4524    111.92599            0 
119900000    1.199e+08    296.16569       107143    495.59889   0.81907956   -990.63013    2319.0383    374.17898    840.55256    272.06514   -280.91916    200.20249   -251.71052    296.19471    -4298.648    1065.6193    1096.5639    1046.4645    99.370243            0 
120000000      1.2e+08    291.08371       107143   -187.81642   0.81907956   -882.82291    2370.0541   -1469.1873    579.84136    325.89674    15.584365    586.00368   -49.645537    291.11123   -4278.2816    1061.0324    1149.0955    1080.4812    104.84961            0 
120100000    1.201e+08    290.56973       107143   -821.95817   0.81907956   -894.46961    2352.6636   -875.52971   -228.82941   -1361.5154   -328.02322   -146.72886   -105.68839    290.59158   -4285.2076    1068.7678    1139.2163     1076.733    106.02087            0 
120200000    1.202e+08    295.81539       107143    -786.2598   0.81907956    -926.3617    2379.3921   -1234.2675   -1603.4622     478.9503   -397.67227   -124.66338   -177.59129    295.84402   -4288.0831    1039.4544    1135.5526    1077.6563    109.05808            0 
120300000    1.203e+08    286.22797       107143   -585.34422   0.81907956   -904.24328    2294.3705   -31.156894   -64.530512   -1660.3453    -666.6737   -65.615265   -466.86048    286.25628   -4271.8499    1065.5592    1114.4224     1073.364      114.261            0 
120400000    1.204e+08    288.00014       107143    248.23824   0.81907956   -865.46807    2352.9498    794.52534    474.05965   -523.87027    621.54341   -514.75638   -376.39796    288.02174   -4281.8908    1093.0756    1134.9913    1078.7322    109.62365            0 
120500000    1.205e+08    298.29132       107143   -91.606551   0.81907956   -942.88791    2390.5345    55.186148   -449.03527    119.02947   -285.62694   -164.67916    502.53347    298.32505   -4285.3735    1027.6842    1156.9724    1050.4906    107.33843            0 
120600000    1.206e+08    293.71121       107143   -157.51535   0.81907956   -863.65643     2418.583    166.64052   -258.56234   -380.62425   -93.515577    291.58083    -64.80723    293.72326   -4280.0104    1075.1507    1144.0758     1086.772    110.35545            0 
120700000    1.207e+08      293.689       107143   -547.96036   0.81907956   -911.42694    2370.5643   -623.51552   -594.80352   -425.56205   -403.41735    669.18312   -551.16102    293.70741   -4268.0322    1036.3558     1142.826    1068.0582    109.36527            0 
120800000    1.208e+08    287.23865       107143   -223.86938   0.81907956    -793.3167    2416.5916   -393.92908    -75.95261   -201.72645    206.84471     354.3204    719.67534    287.23012   -4261.9264    1066.7149    1158.7311     1127.499    115.66467            0 
120900000    1.209e+08    288.92333       107143   -301.17972   0.81907956   -910.48484    2318.2498   -185.76831   -55.107594   -662.66326   -204.32595    164.72295   -527.21356     288.9321   -4298.8233    1051.5972    1151.4847    1081.1539    104.10276            0 
121000000     1.21e+08    292.78087       107143    593.30925   0.81907956   -831.49139    2440.3515    166.32235    942.96122    670.64418    212.91446   -330.23148    38.045063    292.78971   -4293.9173    1072.6733    1142.7388    1134.8503    112.16346            0 
Loop time of 5703.94 on 48 procs for 20000000 steps with 3750 atoms

Pair  time (%) = 1848.31 (32.4041)
Bond  time (%) = 403.926 (7.08153)
Neigh time (%) = 1011.8 (17.7386)
Comm  time (%) = 1728.36 (30.3011)
Outpt time (%) = 31.6126 (0.554223)
Other time (%) = 679.93 (11.9204)

Nlocal:    78.125 ave 91 max 66 min
Histogram: 1 0 7 10 8 6 8 4 3 1
Nghost:    1261.31 ave 1293 max 1233 min
Histogram: 3 4 6 6 4 13 3 3 4 2
Neighs:    5964.71 ave 6936 max 4826 min
Histogram: 1 0 4 7 10 8 9 3 5 1

Total # of neighbors = 286306
Ave neighs/atom = 76.3483
Ave special neighs/atom = 6.26667
Neighbor list builds = 2235197
Dangerous builds = 0
System init for write_restart ...
Setting up run ...
Memory usage per processor = 6.59595 Mbytes
Step dummytim Temp Volume Press Density PotEng TotEng Pxx Pyy Pzz Pxy Pyz Pxz myT molPE1 molPE2 molPE3 molPE4 molPE5 molPE6 
121000000     1.21e+08    292.78067       107143    593.21104   0.81907956   -831.48627    2440.3543    166.22323    942.83064    670.57925     212.5155   -330.19033    38.045191    292.78971   -4293.9166    1072.6755    1142.7411      1134.85    112.16368            0 
121100000    1.211e+08    284.12978       107143    554.20524   0.81907956   -923.52236    2251.6441   -45.944387    1338.6941    369.86599     233.4293    87.594488    700.17881    284.13839   -4261.9408    1029.3804    1133.0642    1061.1129    114.86095            0 
121200000    1.212e+08    289.76563       107143   -323.29298   0.81907956   -793.29091    2444.8565   -44.136924   -178.47439   -747.26763   -138.92452    451.18502    235.17786    289.78678   -4286.0067    1105.7472    1152.8101    1126.1048    108.05366            0 
121300000    1.213e+08    293.52348       107143    118.55003   0.81907956   -927.67247    2352.4691   -424.88045    256.06605     524.4645   -368.75882   -300.94362   -34.459795    293.54989   -4304.5914    1077.0877    1134.3536    1056.4438    109.03387            0 
121400000    1.214e+08    297.00613       107143   -466.73768   0.81907956   -840.31642     2478.744   -1561.2605    -71.68852    232.73596   -447.30216    44.966944   -319.57613    297.04008   -4264.6575    1073.4852    1151.6172    1090.5447    108.69402            0 
121500000    1.215e+08    291.33314       107143     725.0383   0.81907956    -841.5569    2414.1075    1066.2641    1285.7905   -176.93968   -11.223125   -257.99709    300.42076    291.34791   -4272.8267    1059.9082    1165.4522    1099.4027    106.50657            0 
121600000    1.216e+08    297.56449       107143    36.010158   0.81907956   -851.82507     2473.475    271.13566    314.48524   -477.59043   -653.52544   -504.99746   -1125.0449     297.5717   -4281.7625    1049.6029    1156.7348    1112.4195    111.18033            0 
121700000    1.217e+08     291.8388       107143   -88.387764   0.81907956   -994.55358    2266.7616    639.45921   -1103.5337    198.91122   -279.80783    -216.3639   -88.463871    291.83278    -4298.028    999.74542    1133.3607    1055.6211    114.74726            0 
121800000    1.218e+08    295.64365       107143   -474.05387   0.81907956   -897.47371    2406.3609   -84.812975   -743.59512   -593.75352   -159.91008     150.9439    419.89053    295.66436   -4285.9848    1029.6251    1143.3921    1100.6444     114.8496            0 
121900000    1.219e+08    280.34778       107143    274.41946   0.81907956   -875.15308    2257.7493    739.27431     -905.491    989.47507    461.29102    177.18788   -680.84245    280.36723   -4298.6821    1055.5413    1144.1236    1109.7593    114.10474            0 
122000000     1.22e+08    292.20202       107143   -663.37823   0.81907956   -877.74464    2387.6296   -41.915277   -223.12563   -1725.0938     261.5317    206.94765    515.91392    292.21951   -4269.8976    1026.3039    1173.7385    1069.8507    122.25978            0 
122100000    1.221e+08    285.09496       107143   -293.72081   0.81907956   -918.24362    2267.7087    -274.6919    204.40931   -810.87983   -244.53372   -229.93242    625.46667    285.12182   -4289.2686    1047.6461    1108.6553    1109.5778    105.14577            0 
122200000    1.222e+08    298.80546       107143   -16.195013   0.81907956   -844.90303    2494.2649   -227.93581     55.06046    124.29031   -244.52744    202.82427    623.66589      298.833   -4297.3194    1083.8091     1139.061    1121.8717    107.67456            0 
122300000    1.223e+08    292.90803       107143   -1201.7682   0.81907956   -889.57154    2383.6924   -1597.8083    -1475.005   -532.49144    469.01085    1185.0724   -119.82376    292.93492   -4274.7071    1096.4785    1120.6362    1062.2217    105.79921            0 
122400000    1.224e+08    301.46058       107143   -388.92968   0.81907956   -841.17555    2527.6636   -136.20056    517.98155   -1548.5701   -94.913333   -369.06712   -134.96688    301.49319   -4297.4852    1081.9636    1138.4257    1125.9521    109.96821            0 
122500000    1.225e+08    290.70339       107143   -787.97787   0.81907956   -882.61326    2366.0136   -1388.9687   -224.61961   -750.34526   -790.12987   -40.293752   -122.03228    290.70332   -4306.1289    1069.4362    1162.3438    1072.8111    118.92462            0 
122600000    1.226e+08    290.60104       107143    179.77084   0.81907956    -832.5351    2414.9481   -276.87023    208.40828    607.77445    43.265819    190.70515    461.94857    290.61709   -4271.3028    1061.9968    1199.2212     1067.067    110.48256            0 
122700000    1.227e+08     288.2962       107143    274.63495   0.81907956   -840.53263    2381.1938   -254.10026    979.73092    98.274193    239.33982    663.12106    236.69212    288.30235   -4271.5218    1071.0543    1154.2653    1092.9305    112.73907            0 
122800000    1.228e+08     302.0047       107143    202.53461   0.81907956   -863.96639    2510.9533   -158.40034    475.23649    290.76769    148.31306    525.92562   -160.71484    302.01081   -4271.6767     1048.786    1130.7728    1110.7266    117.42501            0 
122900000    1.229e+08    292.30319       107143   -513.20991   0.81907956   -914.24471    2352.2601    -152.8683   -925.97909   -460.78235    322.39746   -399.70712     196.8338    292.30766   -4292.0476    1074.5772    1116.6724    1086.3047    100.24859            0 
123000000     1.23e+08    294.22242       107143   -70.427608   0.81907956   -959.16433     2328.788    417.81388    3.6863843   -632.78308   -377.66189    440.93412   -607.89859    294.25589   -4315.7486    1025.1003    1136.4478    1088.2829    106.75329            0 
123100000    1.231e+08    295.60428       107143   -85.703542   0.81907956   -960.37242    2343.0223   -147.65351    447.31423   -556.77135    104.02013   -511.86405   -114.14881     295.6279   -4286.3012    1049.3681    1083.7553    1089.3928    103.41256            0 
123200000    1.232e+08    288.06301       107143     82.44234   0.81907956   -872.99572    2346.1248   -380.15585    279.31845    348.16442   -259.57687   -381.40606    147.65756    288.06567   -4283.4171    1064.8853    1160.1941     1073.999    111.34299            0 
123300000    1.233e+08    292.00337       107143     486.4004   0.81907956   -928.86248    2334.2918    741.86969   -417.08076    1134.4123   -50.006891    271.22346   -164.07333    292.03146   -4292.9454    1069.0928    1131.0577    1048.7347    115.19772            0 
123400000    1.234e+08    288.13247       107143   -884.89201   0.81907956   -950.26145    2269.6353   -1260.9828   -502.82327   -890.86995   -153.59635    -45.93247   -314.03854    288.14679   -4288.6224    1028.5977    1160.5635    1040.2577    108.94202            0 
123500000    1.235e+08    296.10872       107143    555.42203   0.81907956   -860.19142    2448.8404    345.70706    236.94145    1083.6176    984.02967   -98.215728   -627.01073    296.12683   -4258.4825    1070.1995    1148.2987    1062.3968    117.39618            0 
123600000    1.236e+08    291.66444       107143   -92.097043   0.81907956   -850.28017    2409.0866   -49.269674   -503.08647    276.06501   -68.426323    266.12543   -113.56643    291.65956   -4253.7109    1054.7428    1156.4751    1094.6242    97.588717            0 
123700000    1.237e+08     293.2131       107143    469.15399   0.81907956   -902.11183    2374.5612   -32.421818    1294.8939    144.98984    483.48765    59.223806    338.98272    293.22669   -4301.7224    1091.3327     1131.882    1066.3957    110.00012            0 
123800000    1.238e+08    288.02127       107143   -21.591479   0.81907956   -936.59209     2282.062   -547.80934    510.71401   -27.679107   -41.023663    105.09597    -152.6233    288.03186    -4279.601    1017.8327     1126.666    1100.3642    98.146026            0 
123900000    1.239e+08    296.62127       107143   -72.770516   0.81907956   -866.37053     2448.389    -333.8796    537.79934   -422.23129   -367.12007    219.67015    -429.2102    296.62905   -4296.5747    1061.1845    1183.5029    1060.5142    125.00257            0 
124000000     1.24e+08    294.76094       107143    1172.5969   0.81907956   -832.98917    2460.9811    1524.0554    897.56441     1096.171    170.82819     67.29415    265.11028    294.79863    -4272.274    1064.5746    1176.7956    1094.3597    103.55498            0 
124100000    1.241e+08    291.20598       107143    -314.5079   0.81907956   -845.83136     2408.412   -473.44547   -200.22707   -269.85117   -672.16933   -140.14963    721.16579    291.21558   -4276.5557    1078.0395    1122.8911    1123.0843    106.70945            0 
124200000    1.242e+08    292.86538       107143   -891.94092   0.81907956   -912.28078    2360.5065   -647.22866   -996.96201   -1031.6321   -494.80109    794.75639   -202.07352    292.88603   -4275.0584    1038.1603    1127.1148    1095.5759    101.92657            0 
124300000    1.243e+08    290.60592       107143   -550.59982   0.81907956   -953.28333    2294.2544     -306.879   -120.33232   -1224.5881   -280.46483   -139.86165   -527.85915    290.62699   -4300.0846    1029.1339     1150.213    1050.4266     117.0278            0 
124400000    1.244e+08    287.19052       107143   -228.32892   0.81907956   -896.86742     2312.503    612.68569   -513.08493   -784.58751   -381.66751   -400.43617    131.93824    287.19481   -4267.0342    1074.5504    1105.9348    1080.6428     109.0388            0 
124500000    1.245e+08    291.22242       107143   -342.71774   0.81907956   -971.76609     2282.661   -161.64363   -652.11744   -214.39216    54.725578    66.560161    568.11248    291.23241   -4312.3174    1053.5843    1101.1655    1074.5282    111.27334            0 
124600000    1.246e+08    291.71455       107143    692.56055   0.81907956   -826.48531    2433.4414    666.51017    478.01418    933.15731    223.15269   -41.755948   -122.21775    291.71515   -4286.7624    1080.7905    1166.1638    1101.7283    111.59456            0 
124700000    1.247e+08    295.12747       107143    481.16635   0.81907956   -831.52866    2466.5375    1779.4644    -728.6558    392.69041   -24.622425   -38.756237    97.519338    295.16785   -4296.9017    1099.8631    1153.9103     1110.808    100.79164            0 
124800000    1.248e+08    292.33476       107143     647.6438   0.81907956   -848.24704    2418.6106    627.12272    842.36576    473.44292    -120.4047   -179.13344    115.72624    292.34729   -4279.7342    1031.9176    1171.0758    1106.2215    122.27234            0 
124900000    1.249e+08    286.06281       107143    880.78163   0.81907956    -879.9615    2316.8067    1559.3681    223.10681    859.86997    760.59059   -12.787734    725.53286     286.0802   -4254.7291    1057.3443    1135.3801    1067.7823      114.261            0 
125000000     1.25e+08    285.34665       107143   -706.52901   0.81907956   -870.98135    2317.7837   -1308.4764   -669.48304   -141.62765     165.8247   -160.66497    -113.4269     285.3508   -4278.0272     1123.626    1123.5446    1061.2559    98.619299            0 
125100000    1.251e+08    296.40773       107143   -320.81729   0.81907956   -963.41105    2348.9622   -164.36966   -56.837262   -741.24496   -346.17522    164.79398    157.71948    296.43045   -4295.2046    1044.5157    1154.8586    1035.0239    97.395286            0 
125200000    1.252e+08    294.76022       107143    767.65172   0.81907956   -927.79518     2366.167    311.54293    671.36013    1320.0521    205.97288     142.3024   -318.13601    294.76807   -4304.1222    1110.3002    1133.9228    1019.6326    112.47137            0 
125300000    1.253e+08    295.20643       107143    256.30639   0.81907956   -863.06529    2435.8834     176.5376    170.62952    421.75207   -674.62377    70.307528    489.74662    295.22291   -4293.8885    1121.0945    1148.6113    1054.7055    106.41195            0 
125400000    1.254e+08    298.12374       107143    181.92313   0.81907956    -947.1902    2384.3595    139.88786    305.22494     100.6566   -222.61223    -433.0489   -395.76979    298.13776   -4270.5055    1026.6321    1134.1208    1055.4994    107.06301            0 
125500000    1.255e+08    286.68898       107143   -746.24492   0.81907956   -840.48582    2363.2798   -1998.9655   -422.74915    182.97991   -104.86756    -835.4896    526.21117     286.6915   -4261.1102    1070.0032    1140.3569    1092.8396     117.4247            0 
125600000    1.256e+08     290.2211       107143   -242.82772   0.81907956   -888.84146    2354.3959     369.9816   -476.41452   -622.05023   -509.85661   -762.62104   -913.91513    290.23109   -4268.5862    1064.8204    1130.0517    1076.2644    108.60817            0 
125700000    1.257e+08    289.75229       107143   -252.05638   0.81907956   -913.21432     2324.784   -662.24062   -670.23164    576.30312    -268.6182   -44.824435   -258.41432    289.76733   -4287.3169    1047.4091     1158.311    1054.8887    113.49379            0 
125800000    1.258e+08      300.046       107143   -513.74874   0.81907956   -921.81387    2431.2173    639.51955   -723.33834   -1457.4274    322.35542   -493.06121   -556.69426    300.06537   -4284.2535    1031.2965    1160.6488    1055.5235    114.97081            0 
125900000    1.259e+08    297.14803       107143    300.47498   0.81907956   -856.46552    2464.1806    765.44925    814.91374   -678.93804    293.54249   -300.94819   -432.25987    297.16964   -4269.8115     1065.606    1177.0913    1062.5989    108.04978            0 
126000000     1.26e+08    298.10013       107143   -474.44562   0.81907956   -910.07966    2421.2062   -1100.3169   -922.51497    599.49501   -57.734494    173.93583    471.67049    298.12578   -4313.5453    1099.0202     1136.007    1059.8633    108.57511            0 
126100000    1.261e+08      285.545       107143    74.954748   0.81907956   -932.94934    2258.0322    10.904707   -229.25989    443.21942    -554.7128    403.55567    379.12166    285.57921   -4278.7416     1027.901    1105.4879    1096.1713    116.23212            0 
126200000    1.262e+08    290.35178       107143    346.16745   0.81907956   -964.15227    2280.5453   -373.42055     861.4592    550.46371    794.91898    17.191002   -548.40018    290.36241   -4290.6542    1054.8138    1127.3549    1032.7624    111.57088            0 
126300000    1.263e+08    291.83714       107143     292.8064   0.81907956   -880.00812    2381.2885    159.23688    651.04299    68.139332    51.250084    -143.2984   -108.62497     291.8674   -4288.8852    1092.7062    1146.6592    1050.5932    118.91844            0 
126400000    1.264e+08    292.07931       107143   -176.42231   0.81907956   -862.77714    2401.2258   -64.325081   -224.26164   -240.68022   -166.53328    -332.8612    -451.6993    292.07296   -4280.8519     1094.895    1139.4166    1074.0873    109.67578            0 
126500000    1.265e+08    297.13859       107143    643.38841   0.81907956   -813.67689    2506.8637    949.16547    308.08324    672.91653   -136.65928   -321.65392    242.08225    297.14384   -4245.8449     1071.688    1142.4325    1110.4555    107.59191            0 
126600000    1.266e+08    290.46522       107143    540.83399   0.81907956   -879.85097    2366.1144   -59.207141    675.72163    1005.9875   -141.46825   -400.96094    376.03825    290.47789   -4254.1895    1074.7786    1144.8438    1044.0727    110.64346            0 
126700000    1.267e+08    290.78418       107143   -116.29676   0.81907956   -860.13983    2389.3899    -268.5114   -494.07682    413.69795   -662.41121    396.84585    62.473311    290.79349    -4276.685    1091.9225    1112.8582    1109.3657    102.39876            0 
126800000    1.268e+08    290.84157       107143    86.073923   0.81907956   -899.26707     2350.904    65.706208    144.20448     48.31108     10.76919    161.49462    342.91524     290.8702   -4273.1713    1039.7741    1155.7861    1076.7652     101.5788            0 
126900000    1.269e+08    292.89171       107143      85.1639   0.81907956    -888.4965     2384.585    452.29385    394.54262   -591.34477   -575.85843   -240.62162    917.14739    292.89733   -4298.9427    1050.3301    1158.6363    1082.0121    119.46775            0 
127000000     1.27e+08    289.28334       107143    60.926435   0.81907956   -856.98045    2375.7773    160.77267    -156.3514    178.35803   -565.09951    459.94257   -420.83011    289.30908   -4274.6934    1119.2616    1142.8278    1054.7675    100.85594            0 
127100000    1.271e+08    293.96459       107143    753.62191   0.81907956   -912.38989    2372.6811     957.0127    779.04792    524.80509   -522.90465    1038.0696   -272.52851      293.988   -4276.4155    1048.8388    1127.9154    1079.9211    107.35026            0 
127200000    1.272e+08    290.59744       107143   -631.36083   0.81907956   -935.81137    2311.6316   -564.71027   -519.29096   -810.08127   -338.70236    212.34219    105.88556    290.60569    -4303.982    1093.7849    1096.1298     1070.239     108.0169            0 
127300000    1.273e+08     293.4434       107143    231.21068   0.81907956   -976.75681    2302.4898    664.65298    285.01246   -256.03341   -342.40375   -221.38971   -337.66002    293.45966   -4273.8364    1025.7949    1117.8561    1043.5502    109.87843            0 
127400000    1.274e+08    295.16068       107143    811.60289   0.81907956   -902.59895    2395.8384    656.05821    1495.4288    283.32168    59.464036    128.34523   -142.97754    295.18521   -4306.6119      1069.86    1140.9718    1078.1609    115.02031            0 
127500000    1.275e+08     297.3386       107143    115.68754   0.81907956    -930.3928    2392.3829    332.85148   -270.74921    284.96035   -184.22772   -345.79621   -219.13907    297.34977   -4273.7702    1063.5082     1103.301    1072.3308    104.23745            0 
127600000    1.276e+08    290.13742       107143   -32.456407   0.81907956   -861.51407    2380.7881   -38.601662    531.03735   -589.80491   -646.17179   -93.072526   -194.33956    290.16043   -4269.5836    1084.2149    1168.6307    1047.0507    108.17325            0 
127700000    1.277e+08    291.96705       107143    333.89252   0.81907956    -815.7696    2446.9788    786.54117   -345.34783    560.48421   -132.37633   -196.46267   -270.62313    291.97718   -4289.5926    1072.1886      1196.59    1095.7978     109.2466            0 
127800000    1.278e+08    292.20668       107143     905.4951   0.81907956   -876.36077    2389.0655    360.59827    660.48282    1695.4042     -193.571    450.22104    321.18169    292.22381   -4298.1058    1068.9101    1157.4359    1079.1585    116.24047            0 
127900000    1.279e+08    288.11524       107143   -354.88909   0.81907956   -957.33484    2262.3693   -267.74724    201.97979   -998.89982   -172.64199    338.54269   -175.74593    288.14795   -4285.2414    1069.5554    1140.6458    1009.8179    107.88753            0 
128000000     1.28e+08    295.82843       107143    284.80518   0.81907956   -849.68754     2456.212    9.5872636    8.9942884      835.834    171.17124   -47.361307   -243.83632     295.8411     -4285.52    1093.4767    1136.9344    1098.5668    106.85464            0 
128100000    1.281e+08    284.74596       107143   -466.51938   0.81907956   -943.75048    2238.3019   -119.77301   -180.39774   -1099.3874    130.32786    60.446312    27.086632    284.75425   -4319.2855    1050.6601    1132.9334    1083.4232    108.51826            0 
128200000    1.282e+08    289.49212       107143    419.25165   0.81907956   -927.73753    2307.3533   -18.448306    621.36279    654.84048   -171.80621    167.85524    505.35999     289.5227    -4301.634    1067.8209    1155.7633    1036.1455    114.16674            0 
128300000    1.283e+08    285.83057       107143   -121.37833   0.81907956   -889.95112    2304.2217   -473.05973    492.80833   -383.88358   -332.28279   -541.03685    154.45475    285.84113     -4295.31    1082.7684    1159.6162    1052.3118    110.66253            0 
128400000    1.284e+08    295.93009       107143      271.973   0.81907956    -844.4064    2462.6292    38.993739   -19.860415    796.78568   -127.05492   -173.33986   -174.29019    295.94556   -4270.4178    1062.5748    1179.5246    1066.7197    117.19225            0 
128500000    1.285e+08    297.24653       107143    187.35319   0.81907956   -909.14557    2412.6013     104.6989   -298.80928    756.16996    -411.9354   -502.72056    99.104315    297.25001   -4281.2216     1064.654    1147.4774    1048.1274    111.81727            0 
128600000    1.286e+08    295.01339       107143    453.74339   0.81907956   -927.18572    2369.6057    729.92135     455.2428    176.06603    106.91723     963.5845    486.41082     295.0305    -4309.645    1049.1984    1183.9497    1037.9811    111.33014            0 
128700000    1.287e+08    292.43648       107143   -267.85768   0.81907956   -898.92793    2369.0664   -277.87573   -937.32555    411.62825   -415.63348   -373.95259   -226.43394    292.43683    -4281.204    1082.2247    1125.0871    1069.0829    105.88134            0 
128800000    1.288e+08    296.07556       107143   -365.11364   0.81907956   -851.24636    2457.4149   -541.98446   -295.20995   -258.14653   -711.58205   -595.13339   -49.223414    296.09208   -4291.6027    1093.7454    1136.2409    1089.8631    120.50697            0 
128900000    1.289e+08    295.89938       107143    708.41861   0.81907956   -975.72909    2330.9633    1392.0749    63.673789    669.50713   -415.89079    153.46043   -883.05561    295.92485   -4297.2935    1026.1101    1133.7252    1047.4207    114.30848            0 
129000000     1.29e+08    288.96604       107143   -84.902159   0.81907956   -946.41435    2282.7976   -1246.5893     360.0255    631.85737   -380.00244   -340.45218    202.29343    288.97461   -4286.9169    1068.4875    1123.3324    1041.3139    107.36869            0 
129100000    1.291e+08    296.86263       107143    898.38482   0.81907956    -910.6716    2406.7852    501.64608    832.95204    1360.5564   -414.03974   -392.32496    332.14798     296.8754   -4285.0689    1046.9493    1125.6639    1092.4486    109.33548            0 
129200000    1.292e+08    294.24003       107143    370.71126   0.81907956   -877.29437    2410.8547    76.696008    497.03296    538.40482   -441.42997   -151.38492    61.475515    294.26838   -4312.0517    1086.0851    1143.2146    1095.2334    110.22429            0 
129300000    1.293e+08     289.5875       107143   -145.98511   0.81907956    -860.1207     2376.036    189.56018    176.44471   -803.96023    -32.84366    10.807349   -10.986712    289.61213   -4293.2522    1048.9119    1179.8732    1093.2255    111.12085            0 
129400000    1.294e+08    291.68618       107143   -772.20415   0.81907956   -892.49087    2367.1188   -613.34551   -884.19038   -819.07655   -369.64102    583.82162   -205.96395    291.70814   -4290.5658    1053.2201     1153.686     1087.051    104.11776            0 
129500000    1.295e+08    296.41078       107143    22.354927   0.81907956   -901.73634     2410.671      248.208   -693.19928    512.05607    220.69335   -853.45878   -277.25628    296.41799   -4279.2166    1046.1179    1099.3064    1129.6712    102.38474            0 
129600000    1.296e+08    290.87949       107143     137.5433   0.81907956   -904.57028    2346.0245    306.99709   -107.52859    213.16141   -163.00815   -228.91176   -419.41273    290.88087   -4310.8184    1035.8714     1181.459    1080.0255    108.89221            0 
[...]
195200000    1.952e+08    295.39085       107143    176.09835   0.81907956   -939.33201    2361.6775    480.77633    575.54754   -528.02881   -299.99782    19.687711   -214.21355    295.40221   -4278.5292     1059.794    1103.4829    1076.6876    99.232724            0 
195300000    1.953e+08     296.7783       107143    -472.4118   0.81907956   -920.45936     2396.055   -620.45982   -655.86711   -140.90847    99.209205   -113.31048    223.99242    296.79336   -4277.3652    1034.8833    1177.5821    1038.1796     106.2608            0 
195400000    1.954e+08    298.45747       107143   -65.508841   0.81907956   -852.05368    2483.2255   -361.93242    198.05333   -32.647431   -341.81997    -526.6103   -412.81343    298.46074   -4298.3984    1051.4998    1208.8263    1064.5539    121.46473            0 
195500000    1.955e+08    294.97425       107143   -206.53695   0.81907956   -919.29828    2377.0557   -328.14433   -51.185067   -240.28144    269.82129    105.30772    27.474411    294.97391   -4261.4259    1037.3154    1173.8423    1016.7264    114.24348            0 
195600000    1.956e+08    293.10233       107143     204.9603   0.81907956   -934.31999    2341.1153    64.696977   -76.880883    627.06482   -592.33733    886.35194    -33.00805    293.12096   -4236.2494    1001.3336    1150.7585    1033.4248    116.41243            0 
195700000    1.957e+08    288.35505       107143    1094.7096   0.81907956   -849.43409      2372.95    1258.2615    1249.7472    776.12029     347.9611    808.25559   -268.06226    288.34955   -4278.2168    1082.5931    1131.4803    1101.3279    113.38136            0 
195800000    1.958e+08    293.27321       107143   -181.31269   0.81907956   -883.18335    2394.1614    295.23689    500.78029   -1339.9553     492.4908   -235.79019    5.7543939    293.28963   -4282.9737    1050.9404    1189.0659    1047.9669    111.81719            0 
195900000    1.959e+08    293.42253       107143    382.17119   0.81907956   -852.50453     2426.509    476.32761     418.4282    251.75776    208.33415   -74.619775    53.609873    293.41948   -4275.6661    1059.4833    1171.2785    1082.9742    109.42551            0 
196000000     1.96e+08    298.05791       107143   -272.28859   0.81907956   -773.46749    2557.3466   -102.27624   -758.56266    43.973138    771.92103    38.462386   -278.50975    298.04947    -4274.872    1103.8796    1176.1098    1110.8189    110.59621            0 
196100000    1.961e+08    297.51159       107143    -977.7962   0.81907956   -907.39817    2417.3108   -807.54076   -855.35712   -1270.4907   -430.40086   -581.35313    8.9074039    297.51001   -4314.9734    1103.1383    1152.0552    1049.4794    102.90231            0 
196200000    1.962e+08    291.47041       107143    35.896149   0.81907956   -826.66565    2430.5328    -187.0078    405.66323   -110.96698   -454.81133   -304.35587    111.52024    291.47316   -4287.1864    1080.8388     1131.537    1139.7429    108.40203            0 
196300000    1.963e+08     297.3848       107143   -473.96177   0.81907956   -913.36292    2409.9291    -832.6984   -254.71414   -334.47277   -195.96117    186.92459     45.70522    297.39301   -4294.1488    1062.1499    1125.5905    1085.1349    107.91047            0 
196400000    1.964e+08    294.52039       107143   -265.03829   0.81907956   -790.26583    2501.0163   -123.21071   -510.73592   -161.16825   -104.75914   -295.69953    181.19395    294.53313    -4280.569    1101.8064    1178.3959    1089.4488    120.65217            0 
196500000    1.965e+08    294.18622       107143    1420.8913   0.81907956   -876.25376    2411.2939     1043.573    2120.7734    1098.3274   -75.066328     -31.1459   -396.91732    294.18777   -4259.0358    1037.3268    1141.2104    1093.5977    110.64712            0 
196600000    1.966e+08    288.23701       107143    -137.7061   0.81907956   -906.72533    2314.3397   -323.00283   -237.15845      147.043   -49.266224   -470.66435   -254.37376     288.2434    -4268.478    1070.4662    1107.8266    1070.6917    112.76802            0 
196700000    1.967e+08    295.65401       107143    623.82836   0.81907956   -847.11253    2456.8378    1086.6792    173.69453    611.11135   -357.89845    759.57578   -525.24587    295.67476   -4282.8212    1077.2454    1155.7452    1085.3152    117.40301            0 
196800000    1.968e+08    294.67768       107143    175.42051   0.81907956    -888.0818     2404.958    377.25638    55.445047    93.560116   -357.55585    181.64862   -257.57163    294.68422   -4269.6182    1054.5492    1137.2305    1077.1565    112.60032            0 
196900000    1.969e+08    296.25538       107143    1123.2239   0.81907956   -864.83008    2445.8406    1277.4017    1745.1388    347.13128    272.16202    -189.4278      504.845    296.27381   -4293.5486    1094.0425    1105.0381    1116.1404    113.49746            0 
197000000     1.97e+08     295.6266       107143    134.08302   0.81907956    -887.0761     2416.568   -250.73812    382.55969     270.4275    503.11677     450.8159    306.61994    295.62128   -4268.9433    1058.7269    1171.8261     1048.663    102.65123            0 
197100000    1.971e+08    288.66341       107143   -49.833744   0.81907956   -919.68232    2306.1477    189.88772    281.82436   -621.21331   -467.31692     244.5172    208.88829    288.66131   -4313.7378    1052.7449    1149.2751    1085.7955    106.24002            0 
197200000    1.972e+08    289.86944       107143    83.218518   0.81907956   -913.88627    2325.4212     94.69061   -165.05137    320.01631   -228.87204   -184.62755    400.69515    289.87607   -4267.2096    1053.8949    1129.1465    1071.7341     98.54784            0 
197300000    1.973e+08    290.86412       107143   -317.18005   0.81907956   -937.73025    2312.6928   -388.67868   -473.31739   -89.544094   -444.00397     700.8136    185.45242    290.87452   -4299.5304    1045.8444    1109.4251    1100.4275    106.10312            0 
197400000    1.974e+08    293.38764       107143    292.43892   0.81907956   -938.52197    2340.1016    113.07482    1086.8808   -322.63887    34.764391   -590.14217   -312.02532    293.39249   -4300.9446    1061.1355    1135.7059    1059.3624    106.21879            0 
197500000    1.975e+08    292.16187       107143     -186.705   0.81907956   -911.58379    2353.3418   -54.040365   -584.26915    78.194512   -325.88215   -152.41555    -794.6558    292.15247   -4308.3454    1058.9162    1167.0649     1067.818    102.96259            0 
197600000    1.976e+08    287.24176       107143    204.03952   0.81907956     -993.124     2216.819    359.02176   -451.45334    704.55014   -508.92224    71.189162   -505.84089    287.23729   -4322.1195     1070.387    1127.9285    1025.5676    105.11247            0 
197700000    1.977e+08    287.87557       107143   -291.77659   0.81907956   -880.02018    2337.0057   -301.07932     517.8438   -1092.0942    229.00701     636.2556   -100.95149    287.86744    -4276.807    1089.8976    1149.3545    1046.3143    111.22044            0 
197800000    1.978e+08    294.37206       107143    -51.22849   0.81907956   -903.89649     2385.728     505.4998   -327.91106   -331.27421    109.00397   -349.73734   -230.87095    294.39044   -4298.8035    1093.8641    1165.1398     1027.167    108.73611            0 
197900000    1.979e+08    293.21572       107143    237.34607   0.81907956    -907.9173    2368.7851   -450.86412    267.93185    894.97047    325.84105    658.31066   -351.56088    293.23248   -4301.0421    1040.4886    1174.6976    1060.2218    117.71683            0 
198000000     1.98e+08    295.34185       107143    347.12412   0.81907956   -942.83585    2357.6261    -467.4064    768.22373    740.55502   -437.43933   -196.32121   -32.858791     295.3484   -4283.3511    1047.8134     1102.556    1079.3193    110.82653            0 
198100000    1.981e+08    287.72453       107143   -175.15773   0.81907956   -972.38002     2242.958    -525.6518    749.13426   -748.95564    30.838867   -178.76238    314.75631    287.71037   -4311.7684    1053.4819    1120.6649    1047.5965    117.64518            0 
198200000    1.982e+08    289.44463       107143   -9.8572718   0.81907956   -919.52216     2315.038    760.47853    -533.6594   -256.39094    273.05533     495.8294     147.6517    289.44144    -4285.992    1013.2451    1175.5207    1067.7164    109.98764            0 
198300000    1.983e+08    292.60908       107143    143.56188   0.81907956   -880.69868    2389.2245   -591.83452    534.11694    488.40321     80.36725   -86.579542    73.961194     292.6297   -4289.6375    1105.7214    1166.5413    1030.3414    106.33467            0 
198400000    1.984e+08    292.16385       107143   -26.430358   0.81907956    -923.3468    2341.6008   -171.55737   -365.39477    457.66107   -45.752045    -97.16889     60.75334    292.16064   -4302.7231    1079.5887    1159.7215    1029.4595    110.60662            0 
198500000    1.985e+08    295.93144       107143   -972.89448   0.81907956    -914.5085    2392.5422   -1418.5967   -166.89965   -1333.1871    285.99438    88.158609    86.246631    295.94098   -4304.5384     1071.527    1127.6835    1086.7454    104.07394            0 
198600000    1.986e+08    294.48536       107143    296.34384   0.81907956   -955.30943    2335.5812    1548.1733    25.386405   -684.52818    -110.8385    754.18969    266.28637    294.50026   -4300.6692      1051.38    1115.4094    1076.7253    101.84511            0 
198700000    1.987e+08    294.26757       107143    804.56087   0.81907956   -947.53679    2340.9201     1535.782    572.26761      305.633   -449.23698    45.748866    181.74183    294.30433   -4294.0084    1012.1361    1157.4089    1070.9297    105.99694            0 
198800000    1.988e+08    289.62359       107143   -345.22751   0.81907956   -888.96062    2347.5994   -157.15244   -467.85766   -410.67244   -371.86386    314.69307   -174.94659    289.64019    -4308.927    1065.0708    1171.8126    1065.4238    117.65922            0 
198900000    1.989e+08    292.20422       107143   -340.80975   0.81907956    -899.5362    2365.8626    123.26141   -944.43891   -201.25176    -229.9126    84.000587   -15.320313     292.2073   -4296.4899    1052.6606    1111.2356    1122.4245      110.633            0 
199000000     1.99e+08    290.88023       107143   -48.247088   0.81907956   -903.40552    2347.1976   -145.92363    175.51053   -174.32816   -270.90658    222.32503    121.55489     290.8682   -4310.3198    1088.3178    1112.2992     1091.765     114.5323            0 
199100000    1.991e+08    287.64389       107143   -500.18307   0.81907956   -936.78417    2277.6527   -392.56046   -1080.3811   -27.607659   -594.59703    -17.74555   -49.085794    287.65771   -4319.3928    1049.8886    1160.6062    1062.5583    109.55557            0 
199200000    1.992e+08    288.01742       107143    -395.6567   0.81907956   -887.77068    2330.8403   -628.02055   -1033.0094    474.05982    10.083655   -424.95354   -213.05445    288.01249    -4268.814    1058.9776    1127.7816    1085.3105     108.9736            0 
199300000    1.993e+08    296.35338       107143    137.92738   0.81907956   -811.80184     2499.964    181.91618    365.61301   -133.74704     66.95912    59.101327    261.79186    296.37009   -4288.0649    1109.8453    1180.0221    1076.3592    110.03654            0 
199400000    1.994e+08    293.28425       107143    126.17652   0.81907956   -901.41903    2376.0491   -144.14547   -325.34707    848.02211    118.97547    922.33342    480.82447    293.27833   -4276.4796    1085.2084    1162.7461    1017.2429    109.86314            0 
199500000    1.995e+08     290.0422       107143    113.01809   0.81907956   -908.50984    2332.7282   -309.05275    670.13743   -22.030407   -175.85885   -105.80654   -198.58063    290.04865   -4297.3091    1037.1583    1168.4335    1082.0192    101.18827            0 
199600000    1.996e+08    291.77322       107143     497.6296   0.81907956   -910.92424    2349.6581    1122.3996    143.63898    226.85017   -324.00601    224.78572   -643.42379    291.77997   -4302.5303    1083.4665    1130.4223    1069.6478    108.06952            0 
199700000    1.997e+08    294.21182       107143    352.45474   0.81907956   -925.77102    2362.0628   -506.38017    901.40116    662.34322   -416.43567    830.19474    296.35846    294.22611   -4302.2327    1039.4115    1179.5417    1041.2566    116.25188            0 
199800000    1.998e+08    294.69835       107143   -288.97183   0.81907956   -915.10056    2378.1703    -378.9602   -222.49468   -265.46062    278.85804    -201.8807   -351.37797     294.7035   -4286.5867    1062.3851    1126.7305    1070.6582     111.7123            0 
199900000    1.999e+08    288.27333       107143    756.69424   0.81907956   -869.19103    2352.2799    242.33516    1184.5987    843.14883   -384.74794    -241.3558   -229.25663    288.28487   -4289.9172    1098.4538    1136.6464    1071.4459    114.18019            0 
200000000        2e+08     293.2949       107143   -174.52963   0.81907956   -819.27073    2458.3165    620.78995   -763.24249   -381.13634    -377.5075    534.95753    405.94067    293.30252   -4261.3919    1062.5398    1153.8357    1111.0794    114.66627            0 
200100000    2.001e+08    291.72514       107143   -507.87736   0.81907956   -872.99846    2387.0466   -1940.6882   -240.07995    657.13608   -219.57564    134.56008   -73.129267    291.72902   -4285.1092    1053.9728    1164.8013     1079.918    113.41858            0 
200200000    2.002e+08    290.22686       107143    -829.3453   0.81907956   -846.94864     2396.353   -1134.1462   -444.10322   -909.78642    520.5091Generated thermo.dat
Done!
stress
average  132.177
square average  17614.8
number of blocks  110
variance  1.14431667184156040964
pxx
average  -54.759
square average  3395.36
number of blocks  110
variance  1.89931068596430052786
pyy
average  46.5236
square average  2364.06
number of blocks  110
variance  1.34710006053407520842
pzz
average  21.7729
square average  677.732
number of blocks  110
variance  1.36072449148505911915
xx
average  2184
square average  4.76987*10^06
number of blocks  110
variance  .35675303400633788123
yy
average  2182.44
square average  4.76306*10^06
number of blocks  110
variance  .37714718612234136619
zz
average  2182.19
square average  4.76197*10^06
number of blocks  110
variance  .39084872684035606657
xx
average  -1452.46
square average  2.11003*10^06
number of blocks  110
variance  1.88281317568829822161
yy
average  -1350.18
square average  1.82318*10^06
number of blocks  110
variance  1.32790881395592001010
zz
average  -1374.77
square average  1.89019*10^06
number of blocks  110
variance  1.33976626183959281085
rm: cannot remove `running.average.out': No such file or directory
stress
average  137.36
square average  20859.2
number of blocks  900
variance  1.48751485520126636631
average  132.674
square average  19715.6
number of blocks  1900
variance  1.05461634929984198295
average  134.435
square average  20297.7
number of blocks  2900
variance  .87590953221248234978
average  133.044
square average  19929.3
number of blocks  3900
variance  .75593278496478467302
average  132.373
square average  19727.1
number of blocks  4900
variance  .67074263913902452415
average  132.437
square average  19705.6
number of blocks  5900
variance  .60590890278537438831
average  131.98
square average  19584.3
number of blocks  6900
variance  .56022505829535060658
average  131.564
square average  19430.2
number of blocks  7900
variance  .51816544740659420908
average  131.259
square average  19341.9
number of blocks  8900
variance  .48725035889898635479
average  132.003
square average  19550.5
number of blocks  9900
variance  .46337671379654900487
average  132.121
square average  19572.7
number of blocks  10090
variance  .45802408380768491789
average  132.128
square average  19561.1
number of blocks  10190
variance  .45432083444240111880
average  132.188
square average  19563.4
number of blocks  10290
variance  .45064823798871372210
average  132.211
square average  19556.1
number of blocks  10390
variance  .44703616833949505705
average  132.27
square average  19559.9
number of blocks  10490
variance  .44363382688273833984
average  132.25
square average  19542.1
number of blocks  10590
variance  .44019455523543622397
average  132.272
square average  19536.1
number of blocks  10690
variance  .43686719741343054361
average  132.249
square average  19518
number of blocks  10790
variance  .43355568059274163216
average  132.189
square average  19489.5
number of blocks  10890
variance  .43021427584460265997
average  132.195
square average  19477.6
number of blocks  10990
variance  .42681736626949303361
pressure, stress.strain, ktensor, virial are all concatenated
averages computed will all accumulated data until now
6    179.55876   -20.274087    290.23301   -4283.2031    1093.2029    1141.2851    1093.4891    108.27741            0 
200300000    2.003e+08    287.61601       107143    387.34648   0.81907956   -904.43183    2309.6934    446.22948    896.57725    -180.7673    205.68144    343.59981   -495.76362    287.62387   -4294.5472    1074.4308    1129.3152    1078.1974    108.17194            0 
200400000    2.004e+08    293.59154       107143   -224.21661   0.81907956   -893.12374    2387.7784   -690.57912   -107.26835    125.19764    89.679044     142.9703   -396.01108    293.59694   -4261.0591    1020.2116    1162.0226    1082.7911    102.91008            0 
200500000    2.005e+08    288.77054       107143   -579.27392   0.81907956   -888.29461    2338.7326   -164.43837   -1154.8839   -418.49951   -133.50508    224.96725   -478.48019    288.77711   -4294.5758    1067.3322    1174.1609    1048.3062    116.48188            0 
200600000    2.006e+08    297.34027       107143    596.54543   0.81907956   -913.70727    2409.0872    156.76127    574.18662    1058.6884    48.291316   -352.13237   -303.66454    297.34566   -4299.2609    1051.0935     1137.445    1085.3158    111.69946            0 
200700000    2.007e+08    290.18731       107143   -49.540136   0.81907956   -897.30756    2345.5521   -114.05714    215.33543   -249.89869   -662.31389    109.10656    -393.2679    290.19416   -4287.2981    1045.8485    1130.3692    1090.7353    123.03749            0 
200800000    2.008e+08     295.1402       107143    63.847966   0.81907956   -937.03077    2361.1778   -243.24437    149.04843    285.73984    -102.7815    273.64465   -103.38589    295.14478   -4309.1475    1052.0433    1124.6504    1079.6086    115.81439            0 
200900000    2.009e+08    287.11256       107143   -305.54569   0.81907956   -869.65326     2338.846    324.66083   -819.62854   -421.66937    202.62859    -52.90792   -128.65797      287.126   -4259.8028    1061.5525    1128.2752    1089.2192    111.10265            0 
201000000     2.01e+08    290.26182       107143   -1169.1411   0.81907956   -885.45561    2358.2367   -1652.5342   -712.51444   -1142.3747   -81.967801    1.0657774    16.138492    290.26413   -4304.4646    1077.5791    1147.1305    1084.7808     109.5186            0 
Loop time of 5703.06 on 48 procs for 20000000 steps with 3750 atoms

Pair  time (%) = 1846.54 (32.378)
Bond  time (%) = 403.777 (7.08)
Neigh time (%) = 1011.74 (17.7403)
Comm  time (%) = 1730.02 (30.335)
Outpt time (%) = 34.7672 (0.609624)
Other time (%) = 676.218 (11.8571)

Nlocal:    78.125 ave 90 max 65 min
Histogram: 3 1 3 4 12 5 10 3 6 1
Nghost:    1270.27 ave 1302 max 1247 min
Histogram: 5 3 8 8 8 4 5 3 2 2
Neighs:    5974.02 ave 7052 max 4622 min
Histogram: 2 2 2 3 12 4 10 6 5 2

Total # of neighbors = 286753
Ave neighs/atom = 76.4675
Ave special neighs/atom = 6.26667
Neighbor list builds = 2235315
Dangerous builds = 0
System init for write_restart ...

real	485m47.386s
user	0m0.041s
sys	0m0.053s
