LAMMPS (10 Feb 2015)
Read molecule SQL:
  30 atoms with 4 types
  29 bonds with 1 types
  34 angles with 1 types
  31 dihedrals with 2 types
  6 impropers with 1 types
Reading restart file ...
  restart file = 10 Feb 2015, LAMMPS = 10 Feb 2015
  triclinic box = (111.252 111.252 111.252) to (158.748 158.748 158.748) with tilt (0 0 0)
  3 by 4 by 4 MPI processor grid
  3750 atoms
  3625 bonds
  4250 angles
  3875 dihedrals
  750 impropers
250 atoms in group endatoms
Resetting global state of Fix shear1 Style nvt/sllod from restart file info
Neighbor list info ...
  1 neighbor list requests
  update every 1 steps, delay 0 steps, check yes
  master list distance cutoff = 10.3
Setting up run ...
Memory usage per processor = 5.6832 Mbytes
Step dummytim Temp Volume Press Density PotEng TotEng Pxx Pyy Pzz Pxy Pyz Pxz myT molPE1 molPE2 molPE3 molPE4 molPE5 molPE6 
4300000000      4.3e+09     296.9105       107143    26.496888   0.81907956   -916.49466    2401.4971   -246.33113   -147.05123    472.87303   -278.03915    247.11073   -266.15796    296.91267   -4291.8919    1039.4559    1141.5732    1086.7112    107.65689            0 
4300100000   4.3001e+09     297.4059       107143    552.35924   0.81907956    -887.9651    2435.5628    79.562916    621.33264    956.18216   -783.65514    395.43644   -44.424952    297.40802   -4302.7501    1061.0731    1150.1903    1094.6003    108.92127            0 
4300200000   4.3002e+09    293.44565       107143    553.23057   0.81907956   -968.27693    2310.9949    852.68907     457.3808    349.62183    588.26694    411.91269    26.256633    293.44779   -4270.6938    1072.9962    1064.8498    1066.2578     98.31312            0 
4300300000   4.3003e+09    295.65111       107143   -744.28674   0.81907956   -883.49103    2420.4269   -189.13938    -1277.008   -766.71285    319.78907   -253.42781   -318.23798    295.65311   -4280.5142    1071.9859    1145.8325    1063.0526    116.15219            0 
4300400000   4.3004e+09    291.35769       107143   -234.50453   0.81907956   -903.07079    2352.8679   -63.982244    72.352886   -711.88424   -162.61036   -444.65126    -276.4374    291.35957   -4284.6235     1080.333    1120.9743    1068.1106    112.13484            0 
4300500000   4.3005e+09    290.33215       107143   -301.83184   0.81907956   -962.98519    2281.4931    46.173402    -542.7078   -408.96113    507.23219    -353.1342    40.666966    290.33412   -4293.1907    1038.3155    1148.2268    1028.9203    114.74296            0 
4300600000   4.3006e+09    298.22786       107143    378.72511   0.81907956   -917.19234     2415.521    1299.2011   -509.28148    346.25576   -957.49819   -390.62162    278.89784    298.22985   -4271.4244    1039.3286    1101.1548    1103.9407      109.808            0 
4300700000   4.3007e+09    292.99796       107143    502.68301   0.81907956   -888.89923    2385.3696     172.8331    1041.8562    293.35975    527.72175   -302.86763    379.41792     292.9999   -4276.3203    1072.3648    1152.9547    1060.6715    101.43005            0 
4300800000   4.3008e+09     298.7703       107143    313.10514   0.81907956   -1030.5209    2308.2542    695.67386   -144.79859    388.44013    179.66437    604.17985    416.66329    298.77217   -4272.4488     1041.529    1092.1374    1003.3377    104.92372            0 
4300900000   4.3009e+09    290.98532       107143    262.44505   0.81907956   -940.97038    2310.8072      603.443   -220.70264    404.59479    249.85645   -611.12851   -271.05568    290.98741   -4311.6408    1040.2827     1172.858    1040.6738      116.856            0 
4301000000    4.301e+09     296.1393       107143    29.690834   0.81907956   -908.80279    2400.5707   -119.14272    54.173481    154.04174    204.18285   -254.43198    675.84707    296.14124   -4303.2585    1048.1392    1140.0326    1092.4407    113.84322            0 
4301100000   4.3011e+09    288.38136       107143    10.405813   0.81907956   -972.76056    2249.9175    204.58293    87.073686   -260.43917    211.67662   -209.13927   -298.77491    288.38333   -4318.4778    1062.7765     1145.003    1021.2343     116.7034            0 
4301200000   4.3012e+09    300.60667       107143   -32.684842   0.81907956    -955.8024    2403.4942    180.61199   -102.39012    -176.2764   -97.832017    755.89814    81.387257    300.60873   -4271.3222    1042.2631    1128.7321     1041.313    103.21161            0 
4301300000   4.3013e+09    291.35723       107143   -267.17996   0.81907956   -920.75805    2335.1756    303.85788    32.804069   -1138.2018   -95.355896   -535.05643   -635.61198    291.35928   -4273.6303    1002.0721    1175.2473    1062.4959    113.05687            0 
4301400000   4.3014e+09    289.71044       107143    387.29899   0.81907956   -925.44789    2312.0827    461.03498    90.439224    610.42277     45.66789   -145.84403    586.56156    289.71231    -4289.627    1070.5855    1133.3182    1055.5053    104.77006            0 
4301500000   4.3015e+09    292.87327       107143    454.46513   0.81907956   -867.42441     2405.451    95.895594    291.42435    976.07543    831.91604   -748.64977    465.81524    292.87526   -4276.8211    1076.1959    1162.6949    1046.8737    123.63228            0 
4301600000   4.3016e+09    298.41135       107143    718.94351   0.81907956   -923.00616    2411.7577    1152.2231    1429.1424   -424.53489   -497.72115   -260.03148    283.45053    298.41326   -4293.2931    1035.9305    1113.8088    1103.9151    116.63261            0 
4301700000   4.3017e+09    292.15517       107143   -107.93561   0.81907956   -973.03273     2291.818   -138.61184    141.19128   -326.38627    253.72826   -87.740216   -125.42583    292.15706   -4289.8446    1015.5946    1117.4935    1075.6758    108.04793            0 
4301800000   4.3018e+09    295.66051       107143   -272.35707   0.81907956   -952.67331    2351.3497   -823.06806    535.16526   -529.16841   -116.91938   -489.27155   -540.33863    295.66245    -4292.878    1056.2693    1092.4026    1080.5005    111.03224            0 
4301900000   4.3019e+09    293.02897       107143    570.31336   0.81907956   -914.41535    2360.2001    400.74927    1126.4011    183.78968     388.6067   -59.461612    704.11491    293.03107   -4275.6831     1095.845    1143.8853    1018.9225    102.61496            0 
4302000000    4.302e+09     304.5639       107143    425.32829   0.81907956   -921.00526    2482.5136   -487.91698     875.6735    888.22834   -104.89896   -652.03463    428.61418    304.56595   -4279.6894    1059.3122     1124.044    1073.9898    101.33808            0 
4302100000   4.3021e+09    296.65969       107143    184.93304   0.81907956   -1010.4305    2304.7584   -109.02101    1189.2927   -525.47253    115.57554   -134.46044   -640.70543    296.66163   -4308.3316    997.03095    1129.8424    1062.5023    108.52539            0 
4302200000   4.3022e+09    296.49416       107143   -96.086377   0.81907956   -948.13731    2365.2018   -537.18985    294.80711   -45.876385    264.60739    150.41632   -268.80729    296.49618   -4311.5764    1066.2881    1139.2592     1047.645    110.24675            0 
4302300000   4.3023e+09    293.37997       107143    320.44387   0.81907956   -1040.6575    2237.8803    140.42079    867.70756   -46.796724   -247.37579   -30.581889    265.53277     293.3819   -4309.8231    1024.1572    1114.7422    1025.4554    104.81079            0 
4302400000   4.3024e+09    293.49823       107143   -399.05499   0.81907956   -929.63547    2350.2239    -310.1745   -191.97951   -695.01096    187.23574   -147.23446   -453.12978    293.50028   -4277.2619    1035.7557    1141.7924    1056.7875     113.2908            0 
4302500000   4.3025e+09    294.15497       107143   -19.769024   0.81907956   -828.28761     2458.911   -192.03299   -268.73068     401.4566   -35.130567     126.7925    161.47679    294.15688   -4260.0314    1084.3629    1153.1271    1090.8555    103.39826            0 
4302600000   4.3026e+09    295.94619       107143    318.27742   0.81907956   -937.18321    2370.0323   -127.03955    146.08816    935.78366    255.60467    174.14808    78.550317    295.94807   -4322.3251    1075.9746    1137.7948    1060.7402    110.63219            0 
4302700000   4.3027e+09    288.89024       107143    1020.6289   0.81907956   -930.62972    2297.7351    596.32909    1183.3933    1282.1642    113.79569    18.352058    693.39913    288.89211   -4273.2832    1060.3675    1100.9389     1072.425    108.92202            0 
4302800000   4.3028e+09    294.11896       107143    368.65162   0.81907956   -932.54603      2354.25   -284.84333    368.35288    1022.4453    186.75287   -47.974303    275.07953    294.12108    -4293.757     1077.189    1113.2536    1061.7943    108.97395            0 
4302900000   4.3029e+09    293.12845       107143   -106.94296   0.81907956   -942.23369    2333.4934   -311.75393   -644.86168    635.78673   -275.91195    -397.9596   -35.103331    293.13051   -4319.2217    1075.8977    1137.4129    1049.8128    113.86463            0 
4303000000    4.303e+09    296.03211       107143    70.862042   0.81907956   -1027.6729    2280.5028    328.16513    44.274586   -159.85359    304.25265   -307.63616   -357.62146    296.03407   -4335.3871    1048.5798    1141.0368    1009.6491    108.44849            0 
4303100000   4.3031e+09    291.99794       107143   -336.74365   0.81907956   -963.11041    2299.9832   -162.28302    396.17277   -1244.1207   -52.267643    89.500806    89.817385    291.99986   -4299.3167    1057.1437    1142.9462    1027.3085    108.80786            0 
4303200000   4.3032e+09    300.43716       107143   -240.69712   0.81907956   -944.91487    2412.4875   -119.02729   -569.24144   -33.822626   -608.36485   -300.86218    77.467182    300.43907   -4295.8402    1064.3951    1120.0455    1057.7198    108.76493            0 
4303300000   4.3033e+09    291.57747       107143    226.13443   0.81907956    -932.6492    2325.7456    195.93643   -202.53346    685.00032   -439.89395   -195.27711    371.08818    291.57945   -4288.0747    1029.1062    1162.7047    1053.2452    110.36949            0 
4303400000   4.3034e+09    285.23243       107143    423.22105   0.81907956   -963.34546    2224.1432    876.25982   -98.360165     491.7635    31.569532    267.21723    23.893175    285.23433   -4313.9791    1069.7334    1141.0847    1024.6673    115.14828            0 
4303500000   4.3035e+09    294.34693       107143   -113.73977   0.81907956   -963.47641    2325.8673    711.11842   -518.66888   -533.66884   -92.455642   -575.35622     226.4692    294.34887   -4312.5132    1048.6979    1139.8092    1050.8815    109.64823            0 
4303600000   4.3036e+09    295.24223       107143   -467.23578   0.81907956   -967.37401    2331.9746    -94.21617   -1042.2549   -265.23625    78.096154   -39.356683    382.43616    295.24407   -4288.7595     1015.152    1135.6249    1065.2771    105.33156            0 
4303700000   4.3037e+09    290.61736       107143    667.66806   0.81907956   -909.98025    2337.6853    744.82756    1110.8597     147.3169   -142.98809    296.09657    256.88143    290.61935   -4291.5865    1045.8234    1107.9563    1108.9467    118.87979            0 
4303800000   4.3038e+09    295.47366       107143   -510.74688   0.81907956   -892.77925    2409.1557    58.242397   -477.66604    -1112.817   -328.44901    131.16759    221.42276    295.47543   -4284.9256    1050.0033    1152.3747    1078.5499    111.21842            0 
4303900000   4.3039e+09    290.25994       107143   -672.66879   0.81907956   -1012.4115    2231.2599   -677.18963   -1252.6661   -88.150646    -29.63672    233.59084   -131.40925    290.26195   -4321.1065    1001.1161    1135.2912    1062.8167      109.471            0 
4304000000    4.304e+09    289.03741       107143    416.74577   0.81907956   -973.02896    2256.9806    466.63395    73.111979    710.49137    156.70389   -369.62185    215.42604     289.0394    -4309.765    1041.2623    1151.3533    1043.0983    101.02211            0 
4304100000   4.3041e+09    292.92941       107143   -80.307208   0.81907956   -865.62198    2407.8808    -7.966759   -229.80404    -3.150826    368.22751    128.92339   -609.42315    292.93125   -4320.2208    1108.0845    1163.6043    1065.4057    117.50427            0 
4304200000   4.3042e+09    297.59824       107143    400.26749   0.81907956   -897.14652    2428.5308    627.21129    535.21056    38.380615    82.266728    327.97369    204.28144    297.60022   -4278.3402    1024.0427    1180.8265    1059.1749    117.14956            0 
4304300000   4.3043e+09    295.71316       107143    489.06783   0.81907956   -962.95968    2341.6517    394.21125    844.68594     228.3063   -220.78439   -44.700652   -111.99628    295.71522   -4290.2791    1075.4728    1121.0181    1017.1167    113.71175            0 
4304400000   4.3044e+09    295.46255       107143    -3.754818   0.81907956   -907.49728    2394.3135   -52.839905    -358.7577    400.33315   -394.57388    1003.6025   -508.81002    295.46449   -4275.6217    1084.1221     1111.205    1062.2915    110.50569            0 
4304500000   4.3045e+09    299.58492       107143    189.81932   0.81907956   -947.34371    2400.5348   -345.52549    918.37255   -3.3891044    25.151809   -357.69118    35.301448    299.58696    -4277.008    1076.9412    1127.1922    1020.3838    105.14711            0 
4304600000   4.3046e+09    291.82391       107143    -619.4241   0.81907956   -995.33676     2265.812   -699.39921   -358.25413   -800.61896   -40.904951   -295.31566   -270.99107    291.82596   -4319.1179    1040.9431    1160.4327    1002.0376     120.3678            0 
4304700000   4.3047e+09    299.04555       107143   -68.809649   0.81907956   -950.34095    2391.5101  -0.44018106    202.56718   -408.55595    566.25123   -507.14556    267.01592    299.04736    -4289.467    1080.4423    1146.6209     998.3312    113.73173            0 
4304800000   4.3048e+09    295.95547       107143    495.57022   0.81907956   -920.60128     2386.718    421.24729    608.90595     456.5574    291.67816   -263.80489    8.8929061    295.95745   -4298.3298    1123.8128    1105.7817    1036.4531    111.68085            0 
4304900000   4.3049e+09     287.4002       107143   -45.899666   0.81907956   -992.31611    2219.3974   -306.58751   -753.35061    922.23912    517.96499   -318.72105   -659.12441    287.40212   -4288.5565    1028.0345    1115.9155     1036.994    115.29638            0 
4305000000    4.305e+09    296.60505       107143    737.72948   0.81907956   -955.73333     2358.845    803.77073    624.03062    785.38708    339.89181    455.51117   -572.48137    296.60707   -4282.6551    1026.8611    1142.1895    1047.0009    110.87031            0 
4305100000   4.3051e+09    294.47563       107143    15.779401   0.81907956   -930.52198    2360.2599    308.10233   -574.42718    313.66305   -399.45716    86.338767    296.57654    294.47765   -4300.0858    1045.0741    1149.4963    1069.1656    105.82782            0 
4305200000   4.3052e+09    293.97725       107143   -787.26452   0.81907956   -864.56656    2420.6459   -694.87446    -190.3507   -1476.5684    539.51325    406.73196    136.96892    293.97924   -4272.3489    1062.6457    1171.8791    1058.6312    114.62641            0 
4305300000   4.3053e+09    296.11922       107143    183.04461   0.81907956   -994.18273    2314.9664   -394.44274    135.48054    808.09602    283.29888    538.46548    114.27154    296.12126   -4268.6667    1017.9674    1117.1825    1036.1418    103.19232            0 
4305400000   4.3054e+09    296.13361       107143    320.11008   0.81907956   -996.94329    2312.3666   -359.10752    609.61748    709.82027    -98.18072   -4.4513849    100.84208    296.13562   -4270.5134    1036.1037    1115.9976    1016.0614    105.40737            0 
4305500000   4.3055e+09    304.22449       107143    206.68389   0.81907956   -908.29531    2491.4307  -0.18103427    173.81687    446.41582   -137.10908    259.10389   -225.61879    304.22666   -4290.1797    1061.4304     1153.533    1061.5225    105.39852            0 
4305600000   4.3056e+09    293.53292       107143    37.053501   0.81907956    -922.4887    2357.7583    1032.8504    -262.2915   -659.39844   -546.18792   -237.13413     86.26376    293.53482    -4296.651    1088.7671     1105.442    1068.2681     111.6851            0 
4305700000   4.3057e+09    296.39345       107143   -218.61491   0.81907956   -960.47426    2351.7394   -798.67823    343.80561   -200.97211    449.91032     69.81304   -85.559998    296.39546   -4309.3974    1063.0033    1174.6084    1002.0281    109.28325            0 
4305800000   4.3058e+09    291.86829       107143   -667.35725   0.81907956   -926.10589    2335.5389   -968.08087   -202.77215   -831.21873    200.94002    284.04471   -47.239243    291.87031   -4251.7903    1044.2753    1139.2176    1022.7315    119.46005            0 
4305900000   4.3059e+09    296.90766       107143   -236.93522   0.81907956   -939.32622    2378.6337   -636.50902    673.97771   -748.27435   -47.310877    648.47049    156.75506    296.90961    -4274.314    1052.5596    1126.5526     1045.572    110.30359            0 
4306000000    4.306e+09    291.11408       107143    292.31434   0.81907956   -949.91184    2303.3046    1053.6596   -480.57489    303.85829    267.30542    44.245676   -221.81715    291.11607   -4277.8888    996.68855    1133.0622    1082.4214    115.80484            0 
4306100000   4.3061e+09    286.88487       107143    212.69612   0.81907956    -966.1625    2239.7922   -50.778084   -134.86876     823.7352   -50.010893    57.265383   -409.56367    286.88677   -4295.8028    1061.2431    1103.4106    1058.9369    106.04972            0 
4306200000   4.3062e+09    286.16684       107143     732.4896   0.81907956   -861.90151    2336.0292    1332.3513   -122.64593    987.76346   -784.29446     356.5713   -101.02093    286.16877   -4296.3466    1082.1788    1155.2171    1088.7906    108.25862            0 
4306300000   4.3063e+09     296.0747       107143   -241.46089   0.81907956   -939.13658     2369.515   -498.11659    127.16493   -353.43101    468.68386   -134.59483   -72.190198    296.07691   -4298.9057    1059.4776     1162.313     1017.113    120.86565            0 
4306400000   4.3064e+09    297.64554       107143    25.567464   0.81907956   -1008.6414    2317.5645   -514.33759    -228.2062    819.24618    312.95628   -502.09274   -681.17483    297.64744   -4308.4111    1053.5076    1135.2619    1008.8636    102.13663            0 
4306500000   4.3065e+09    293.69056       107143   -719.71563   0.81907956   -894.12673     2387.882   -966.23288    196.57664   -1389.4906   -77.405124   -12.302312   -205.64708    293.69259   -4251.8444    1068.8605    1098.7707    1081.3839    108.70249            0 
4306600000   4.3066e+09    284.43531       107143    737.74222   0.81907956   -955.96836    2222.6124    1388.1943    365.48331    459.54905     16.44756    -158.8748   -44.096842    284.43728   -4310.0843    1053.9073    1133.7602    1048.5606    117.88778            0 
4306700000   4.3067e+09    291.60037       107143    773.62664   0.81907956   -933.62779    2325.0229    702.67113    1153.7411     464.4677    732.03592     302.5375   -24.219624    291.60229   -4264.2942    1073.6852    1106.5867    1043.4656    106.92884            0 
4306800000   4.3068e+09    288.56593       107143    408.89991   0.81907956   -1009.4953    2215.2454    999.92378    457.32864   -230.55269   -66.572637   -261.32157   -307.86576    288.56788   -4311.0228     1052.684    1066.4191    1081.9794    100.44491            0 
4306900000   4.3069e+09    303.90978       107143    169.68921   0.81907956   -995.81295    2400.3961    297.36935    282.85046   -71.152178    167.56017    339.30499   -273.70771    303.91188   -4287.3876    1057.4015    1079.1854    1047.3982    107.58954            0 
4307000000    4.307e+09    290.66532       107143   -29.917623   0.81907956    -979.3874    2268.8141   -385.29502    646.15684   -350.61469   -101.28788    85.960619    179.66998    290.66735   -4293.5402    1056.5562    1074.7487    1070.4138    112.43422            0 
4307100000   4.3071e+09    289.67905       107143    -109.3236   0.81907956   -958.15858    2279.0213   -723.83265      470.578   -74.716133    -258.5277   -165.80209    283.13535    289.68101   -4322.4333    1073.8988    1148.3082    1034.6785    107.38928            0 
4307200000   4.3072e+09    294.53996       107143   -216.67227   0.81907956   -922.70756    2368.7933   -445.53691   -694.34063    489.86073    132.16399    343.85101    628.81127    294.54196   -4306.0634    1059.7895    1131.4588    1080.7173    111.39026            0 
4307300000   4.3073e+09    296.33468       107143   -70.717154   0.81907956   -906.48705    2405.0698    431.99149    -430.5405   -213.60245    435.26756    -582.6784   -724.21577    296.33678   -4298.7547    1048.8115    1172.1139    1055.1853    116.15694            0 
4307400000   4.3074e+09    287.25505       107143   -450.44568   0.81907956   -1003.2211    2206.8705   -714.13535   -8.1656372   -629.03604   -244.06307    7.1951465    430.17815      287.257   -4311.1363    1085.7813    1128.5594    981.15999     112.4146            0 
4307500000   4.3075e+09    294.26774       107143    -230.9977   0.81907956   -994.87249    2293.5863   -270.01164    -648.4041    225.42264   -339.80252    -350.4136    654.93461    294.26965   -4289.3132    1029.9769    1101.1612    1057.2289    106.07365            0 
4307600000   4.3076e+09    283.73386       107143   -842.83939   0.81907956   -965.55519    2205.1868   -1023.7375   -554.77475   -950.00592   -584.42311    593.61259    442.85299    283.73576   -4301.9694    1044.0217    1162.4754    1018.8423    111.07481            0 
4307700000   4.3077e+09    287.40021       107143   -47.211915   0.81907956   -930.32857    2281.3851   -324.81373    -93.67178    276.84977    34.322666   -778.46638    12.903815    287.40228   -4302.7044    1086.2293    1099.4842    1080.5662    106.09616            0 
4307800000   4.3078e+09    296.54936       107143   -702.40684   0.81907956   -1022.1633    2291.7926    12.973568   -1123.8355   -996.35855   -85.080758   -494.39571   -64.818849     296.5513   -4308.6849    1016.3126     1122.082    1046.3345    101.79258            0 
4307900000   4.3079e+09      294.123       107143   -544.45162   0.81907956   -926.87992    2359.9614   -751.77927   -1324.9148    443.33925   -617.39125    338.35267    276.35691    294.12491   -4293.2249    1072.8078    1125.1007    1057.5578    110.87865            0 
4308000000    4.308e+09    294.28583       107143   -273.52926   0.81907956   -930.18821    2358.4727   -670.68366   -586.26597    436.36185   -6.9966203    77.413415    -281.7097    294.28789     -4289.71    1022.7004    1140.7074    1078.9581    117.15593            0 
4308100000   4.3081e+09    296.57235       107143   -988.37369   0.81907956    -946.4652    2367.7477   -311.97131   -1650.5886   -1002.5612   -572.91634    619.20703    532.19261    296.57423   -4288.2931    1066.2989    1102.7167    1066.2594    106.55284            0 
4308200000   4.3082e+09     290.8489       107143    281.20878   0.81907956   -855.75076    2394.5023    404.73681    301.16746    137.72207   -264.96471   -748.19852   -700.75025    290.85104   -4293.5156    1069.8334    1137.8054    1127.8772    102.24886            0 
4308300000   4.3083e+09    297.24603       107143    -21.59932   0.81907956   -930.81721    2390.9241   -291.54872    558.55316    -331.8024    125.91848    -107.2359   -57.667926    297.24816   -4295.6853    1038.7521    1165.5633    1057.4266     103.1261            0 
4308400000   4.3084e+09    296.43645       107143    147.49533   0.81907956   -952.73866    2359.9555   -318.78205    436.03527    325.23278    506.12487    551.70946    66.597742     296.4383   -4292.1336    1026.9452    1139.7088    1067.0511    105.68973            0 
4308500000   4.3085e+09    294.29433       107143    37.267165   0.81907956    -965.1479     2323.608    613.22482   -764.45769    263.03436   -133.53112   -891.86762   -440.47074    294.29632   -4284.5957    1043.0615    1108.7371    1067.9368    99.712416            0 
4308600000   4.3086e+09    290.08418       107143   -94.317835   0.81907956   -913.02091    2328.6863   -335.98869   -36.272783    89.307965   -26.549479   -10.820536   -478.00082    290.08627   -4289.7483    1046.7593    1138.6751    1091.9298    99.363189            0 
4308700000   4.3087e+09    297.14346       107143   -525.08342   0.81907956   -847.79963    2472.7955   -695.89788   -424.89049   -454.46188   -837.92137   -408.20398   -290.28149    297.14551     -4273.21    1099.3485     1131.732    1081.6521    112.67778            0 
4308800000   4.3088e+09    290.85246       107143   -400.22657   0.81907956   -892.49623    2357.7966    89.225392   -797.14396   -492.76115    -195.8715    375.76597   -399.45105    290.85431   -4288.8678    1040.6556    1170.4513    1067.6498    117.61492            0 
4308900000   4.3089e+09    287.17362       107143   -396.16782   0.81907956   -976.44605    2232.7355    -579.6776   -939.08564    330.25978   -5.0480021    395.15526    23.174353    287.17586   -4280.4623    998.89997    1159.9907    1036.8412    108.28428            0 
4309000000    4.309e+09    292.85647       107143    627.93276   0.81907956   -880.39896    2392.2887   -161.23742    779.54759    1265.4881   -348.69508    752.43494   -336.99339    292.85844   -4295.4076    1066.3499    1150.6409     1086.657    111.36081            0 
4309100000   4.3091e+09    292.82825       107143    239.98473   0.81907956   -852.99849    2419.3738     619.8633     398.5251   -298.43422    375.13522    50.893612    25.904295    292.83035   -4287.9653    1088.3163    1168.0693    1066.8088    111.77237            0 
4309200000   4.3092e+09    293.24934       107143    560.85398   0.81907956   -901.55352    2375.5246   -272.43782    1376.6545    578.34526    134.54077    140.26089   -654.47731     293.2514   -4298.2481    1082.3589    1144.8899    1061.7889    107.65689            0 
4309300000   4.3093e+09    293.77247       107143    728.51766   0.81907956   -871.46755    2411.4565    416.30721    801.99123    967.25454   -282.80163     -450.457    15.659526    293.77454   -4276.8738    1067.6428    1167.6395    1049.7203    120.40362            0 
4309400000   4.3094e+09    293.34164       107143   -100.22609   0.81907956   -956.52186    2321.5876    308.04925    41.635485     -650.363    -226.4482    -104.8323   -847.55712     293.3434   -4313.3135    1026.3176    1159.9575    1060.2989    110.21769            0 
4309500000   4.3095e+09    292.50134       107143    779.82048   0.81907956   -1009.2663    2259.4529    768.49428    719.55333    851.41383   -398.80317   -328.48524   -39.364874     292.5036   -4299.5861    1050.5406    1092.3105    1047.1237      100.345            0 
4309600000   4.3096e+09    293.17694       107143    222.70453   0.81907956   -937.77601     2338.493    189.47201    51.224931    427.41665   -553.03711    -437.1583    59.461842    293.17898   -4289.5196    1009.7643     1188.046    1035.6992     118.2341            0 
4309700000   4.3097e+09    294.55276       107143    711.52478   0.81907956   -938.37767    2353.2662    936.39229    36.911732    1161.2703    23.656163    149.37531   -158.61376    294.55477   -4298.2884    1064.3795    1151.4612    1030.8621    113.20788            0 
4309800000   4.3098e+09    291.13845       107143   -1180.7003   0.81907956   -956.73046    2296.7583   -1771.3864   -972.63798   -798.07657    316.89009   -297.28514    65.651419     291.1405   -4286.9985    1023.6214    1097.1038    1110.0185    99.524272            0 
4309900000   4.3099e+09    291.86917       107143   -388.71733   0.81907956   -974.18778    2287.4668   -99.548513   -701.58868   -365.01479   -21.883517   -97.970289    770.76497    291.87117   -4290.9941    1049.8378     1132.892    1022.6779    111.39868            0 
4310000000     4.31e+09    293.70941       107143     138.6769   0.81907956   -874.15136     2408.068    1002.7219    67.499418   -654.19064    235.45637   -120.50928   -214.37401     293.7114   -4283.3747    1066.5059     1136.355    1098.2571    108.10536            0 
4310100000   4.3101e+09    291.53956       107143   -9.6792108   0.81907956   -921.92539    2336.0458    427.21097   -215.58903   -240.65958    51.936226    -306.7412  -0.68589236    291.54139   -4312.2539    1034.6132    1152.2284    1096.5178     106.9691            0 
4310200000   4.3102e+09    292.04216       107143    262.22665   0.81907956   -906.48572     2357.102   -301.79562    508.11123    580.36434   -393.09451   -946.39863    304.51185    292.04413   -4267.8251     1025.202    1118.0366    1104.5878    113.51288            0 
4310300000   4.3103e+09    295.03972       107143    282.60824   0.81907956   -899.49115    2397.5945   -133.62618   -2.4602986    983.91119   -361.50771    -235.0123   -463.44755    295.04188   -4261.3199    1061.5658    1150.3662    1043.5462    106.35052            0 
4310400000   4.3104e+09    286.55031       107143   -102.59158   0.81907956   -982.24901     2219.967    209.37864   -563.98575    46.832381    635.11493    331.41294    493.24755     286.5523   -4307.5144    1054.4911     1121.316    1041.4311    108.02715            0 
4310500000   4.3105e+09    291.80143       107143    491.18515   0.81907956   -930.10493    2330.7926    1269.8493   -79.959274    283.66542   -32.519649   -392.40381    291.91412    291.80357   -4277.0832    1065.4771    1113.2831    1061.3187    106.89942            0 
4310600000   4.3106e+09    290.14752       107143   -108.22827   0.81907956   -951.75929    2290.6557   -362.19631    274.36737   -236.85588   -161.51333    302.64646    88.885386    290.14937   -4264.8134    1041.2337    1106.6385    1048.3411    116.84078            0 
4310700000   4.3107e+09    293.83281       107143    -98.00725   0.81907956   -840.70156    2442.8968     568.0256   -308.10049   -553.94686    682.69072    5.8051842    216.03913    293.83493   -4269.6655    1069.2318     1179.546      1075.85    104.33612            0 
4310800000   4.3108e+09    293.50413       107143    146.39632   0.81907956   -993.66526    2286.2601    506.66068    728.48816   -795.95987   -305.88196   -293.20246    188.61965    293.50629   -4300.0908     1075.933    1106.5571    1013.7151    110.22031            0 
4310900000   4.3109e+09    296.27248       107143   -559.00366   0.81907956    -935.1823    2375.6795    377.29739   -1872.4944   -181.81394   -163.23642    -724.1279    134.24484    296.27446   -4295.1627    1055.9635    1111.5717    1081.6921    110.75306            0 
4311000000    4.311e+09    285.62431       107143   -533.96175   0.81907956   -906.13817    2285.7297   -1066.2382   -973.43708    437.78998   -304.05232    24.045512   -69.455391    285.62649   -4274.5049    1052.5837    1141.0271    1060.4065     114.3494            0 
4311100000   4.3111e+09    293.32693       107143    305.57178   0.81907956   -977.95662    2299.9885     452.0236    137.61664    327.07509    195.59941    302.08149   -444.18156    293.32902   -4311.7186    1018.3819    1167.7227    1036.9508    110.70659            0 
4311200000   4.3112e+09    290.56649       107143     292.7824   0.81907956   -1039.6258    2207.4713   -248.45735     211.0301    915.77444   -336.01491    201.42497   -363.12704    290.56851   -4313.7928    1044.2878    1112.3998    1014.8842     102.5952            0 
4311300000   4.3113e+09     289.9499       107143    67.709605   0.81907956   -927.42795    2312.7787   -336.15709    755.29746   -216.01155    40.363496    762.03838   -38.976422    289.95176   -4290.2245    1057.8238    1169.5244    1021.5513    113.89698            0 
4311400000   4.3114e+09    294.39009       107143   -474.88368   0.81907956   -939.33853    2350.4875   -393.70283   -999.41091     -31.5373  -0.57595991    481.39373    372.93829    294.39223    -4299.956    1040.5254    1142.0254    1060.1702    117.89639            0 
4311500000   4.3115e+09     291.4728       107143    621.35086   0.81907956   -981.70368    2275.5215    1185.2887    798.45323   -119.68937    161.97521    -393.8153   -112.67074     291.4748   -4285.3816    1037.3119    1126.7558    1033.2542    106.35599            0 
4311600000   4.3116e+09    298.12673       107143   -69.900684   0.81907956   -943.76221    2387.8209   -920.87985    376.42498    334.75282   -300.28095   -285.55144   -109.83145    298.12861   -4308.7142    1047.1869    1143.0824    1069.7196     104.9631            0 
4311700000   4.3117e+09    292.93128       107143    150.41388   0.81907956   -971.03535    2302.4884    504.51409    669.61638   -722.88881    160.91208   -122.77048    364.42142    292.93319    -4286.019    1024.5727     1117.112    1059.0723     114.2267            0 
4311800000   4.3118e+09    292.02181       107143   -264.45457   0.81907956   -942.89188    2320.4684   -248.87902   -323.30371   -221.18099    598.19452    265.50081    160.51946    292.02386   -4295.5194    1093.1805    1138.3784    1003.9286    117.14008            0 
4311900000   4.3119e+09    297.03592       107143   -441.54816   0.81907956   -803.36388    2516.0294   -886.88446    123.24143   -561.00144    399.84492    2.9262579   -80.592215    297.03788   -4257.1377    1080.1177    1153.2098    1103.1914      117.255            0 
4312000000    4.312e+09     294.8248       107143   -300.35519   0.81907956   -877.13662    2417.5473    189.02769   -610.36441   -479.72884    137.77516   -882.71805    1012.3246    294.82684   -4285.7373    1069.7424    1098.9152    1117.4288    122.51418            0 
4312100000   4.3121e+09    290.88548       107143   -201.54193   0.81907956   -986.03134    2264.6305   -443.65006   -8.7095438    -152.2662   -302.69795    145.69562    157.50976     290.8875   -4293.6433    1041.5697    1120.7787    1036.9646    108.29901            0 
4312200000   4.3122e+09    291.11724       107143   -184.00296   0.81907956   -1003.6674    2249.5842   -320.10969      109.918   -341.81719     181.2453   -697.31217   -441.28122    291.11898   -4295.5173    1074.7158    1121.0452    995.15308    100.93583            0 
4312300000   4.3123e+09    287.80536       107143   -261.18546   0.81907956   -961.74999    2254.4913   -248.15002    194.00164     -729.408   -236.99972   -165.62243   -526.81408    287.80743   -4306.9411    1063.6761    1131.1589    1053.2043    97.151892            0 
4312400000   4.3124e+09    285.18613       107143   -76.352066   0.81907956   -912.19897    2274.7723    457.29715     154.5434   -840.89675   -372.60104    481.39686    41.401094    285.18824   -4294.5544    1066.0635    1139.4161    1068.9734    107.90254            0 
4312500000   4.3125e+09    293.25985       107143   -462.42718   0.81907956   -879.18477    2398.0107    85.334336    -1222.761   -249.85484   -114.46693    375.38909    585.84474    293.26187    -4299.347    1069.3611    1157.3062    1091.3914    102.10357            0 
4312600000   4.3126e+09    294.87338       107143    170.51038   0.81907956   -918.62905    2376.5977   -124.06506    458.23289    177.36329   -707.36874   -369.48051   -20.520696    294.87535   -4274.4182    1090.1938    1116.9382    1047.5455    101.11148            0 
4312700000   4.3127e+09     289.3745       107143    46.599983   0.81907956   -917.89479    2315.8818    920.70128   -796.23772    15.336395   -735.60351   -182.34626    170.98893    289.37655   -4289.8416    1077.7761    1127.7738    1056.8855    109.51151            0 
4312800000   4.3128e+09    292.24736       107143   -585.99223   0.81907956    -935.9359     2329.945    -452.3789    -526.2311   -779.36669   -1140.2731    625.85172   -238.42403     292.2494   -4294.6783    1064.3667    1135.2515    1049.7789    109.34526            0 
4312900000   4.3129e+09     292.1015       107143   -484.65537   0.81907956   -929.38798    2334.8628    368.35631    -944.0452   -878.27721   -155.49476   -53.960771   -18.717821    292.10346   -4293.9934    1037.4629    1135.2097    1084.5073    107.42541            0 
4313000000    4.313e+09    291.62193       107143   -333.40776   0.81907956   -928.58438    2330.3072   -715.04046   -507.50904    222.32621    235.74336    207.21905    566.54965    291.62371   -4301.8902    1071.1206    1135.3553    1047.1241    119.70589            0 
4313100000   4.3131e+09    291.06722       107143   -160.59404   0.81907956   -866.40655    2386.2862   -695.57674    48.588597    165.20603    72.784034    192.52585    835.28254    291.06934   -4263.5407    1075.3146    1137.8723    1060.0804    123.86685            0 
4313200000   4.3132e+09    287.88819       107143    118.38284   0.81907956    -839.5625    2377.6044   -476.56842    243.94599    587.77094   -560.99564   -503.19495    -211.8486    287.89039   -4288.7929    1091.8879    1183.1566    1063.2427    110.94326            0 
4313300000   4.3133e+09    297.36579       107143    143.23789   0.81907956   -922.10883    2400.9708    674.79459    223.39537   -468.47628   -406.64401    238.83053    562.65192     297.3679   -4293.2375    1041.5955    1137.4607    1087.2521    104.82028            0 
4313400000   4.3134e+09    297.00159       107143    92.367894   0.81907956   -964.82396    2354.1857     431.2671   -14.532429   -139.63099   -432.91858   -172.10803   -127.38601    297.00352   -4289.1673    1070.9171    1114.2702    1032.1662    106.98987            0 
4313500000   4.3135e+09    295.60432       107143    147.72421   0.81907956   -872.15733    2431.2378   -598.25125    903.08758     138.3363   -493.99881   -420.08311    215.71281    295.60621   -4276.5568    1049.6935    1139.5837    1100.5779    114.54436            0 
4313600000   4.3136e+09    295.03323       107143   -64.261094   0.81907956   -916.43141    2380.5817   -141.83041   -306.59506    255.64219    -590.1188    421.57089   -889.87617     295.0352   -4257.2335    1017.4433    1124.1753    1090.2467    108.93678            0 
4313700000   4.3137e+09    285.59991       107143   -460.48372   0.81907956   -887.48832     2304.107     38.14957   -471.62965   -947.97106    542.72601    198.51282   -212.05388    285.60188   -4301.2418    1047.1722    1150.9618    1096.8072    118.81228            0 
4313800000   4.3138e+09    297.89978       107143   -561.86755   0.81907956   -913.64624    2415.4007   -862.64237   -472.01115   -350.94913    -256.3185   -103.74989    26.210348    297.90195    -4317.873    1090.3238    1111.0671    1093.1584    109.67745            0 
4313900000   4.3139e+09    287.43749       107143    386.66959   0.81907956   -931.73353    2280.3968    116.20744    215.05957    828.74176    439.94999    122.56397   -105.75801    287.43964   -4309.7639    1064.7579    1147.2053    1059.9856    106.08152            0 
4314000000    4.314e+09    291.87895       107143    226.61072   0.81907956   -965.44306    2296.3208    579.32909   -156.37815    256.88123   -230.79208     63.06313   -106.05209    291.88092   -4293.6593    1061.9716    1140.9562    1026.5454    98.743004            0 
4314100000   4.3141e+09    297.81951       107143    401.19496   0.81907956   -904.56883    2423.5811    374.49555    296.58034    532.50899   -53.509227   -598.31727    541.18554    297.82135   -4261.2073    1035.3843     1111.818    1106.8154    102.62082            0 
4314200000   4.3142e+09    290.30351       107143   -174.44005   0.81907956   -915.19149    2328.9667   -337.74208   -227.30038    41.722312    701.76218    23.946864   -411.47233    290.30545   -4299.4398      1079.87    1102.8091    1079.7748     121.7944            0 
4314300000   4.3143e+09    293.58935       107143    225.55493   0.81907956   -920.07209    2360.8055    377.90262    54.546803    244.21535   -5.6787647   -320.19379    546.65537    293.59139   -4279.1668    1079.0778    1110.0896     1069.966    99.961304            0 
4314400000   4.3144e+09    291.77507       107143   -270.42475   0.81907956   -864.75812    2395.8449   -730.78203   -316.30451    235.81228   -776.73519    765.04826    659.38414     291.7769   -4310.9679    1102.3082    1146.0271    1072.5314    125.34314            0 
4314500000   4.3145e+09    292.37612       107143   -541.64031   0.81907956   -942.90528    2324.4145    154.42409   -1399.2282   -380.11679    98.268059    453.07102    -411.5174    292.37798   -4307.2858    1084.3217    1098.2486    1081.2047    100.60549            0 
4314600000   4.3146e+09    297.83627       107143     1113.213   0.81907956   -903.41505    2424.9222    707.51034    1733.4705    898.65821     20.55161   -850.45243     429.0508    297.83822   -4309.0481    1042.0189    1171.7706    1094.2631    97.580454            0 
4314700000   4.3147e+09    291.43287       107143    103.44204   0.81907956   -886.11001    2370.6689   -113.45077   -162.88297    586.65986     316.6166    634.05224    95.397396    291.43496   -4284.3127    1048.2093    1174.6282    1051.3273    124.03788            0 
4314800000   4.3148e+09    292.10373       107143   -241.19078   0.81907956   -882.53202    2381.7438   -10.752818    173.20855   -886.02808    206.73743   -284.14334    18.957467    292.10567   -4254.3106    1087.3611     1143.399    1038.2903    102.72811            0 
4314900000   4.3149e+09    289.68703       107143    84.850591   0.81907956    -724.2174    2513.0516    64.765591   -287.47053    477.25671    81.208488    -302.7287    278.01294    289.68902   -4268.2143    1072.3911    1204.5131    1151.5455    115.54723            0 
4315000000    4.315e+09    289.96041       107143   -388.50754   0.81907956   -834.65261    2405.6715   -1041.0841   -648.63249    524.19402     113.4848   -185.47157    285.12003    289.96245   -4293.6555    1094.2925    1157.4109    1096.3658    110.93366            0 
4315100000   4.3151e+09    289.51477       107143     57.43468   0.81907956   -956.26233    2279.0817    889.29892   -465.50875   -251.48613   -291.26778   -485.31065   -223.98062    289.51668   -4302.6959    1042.0242    1118.7832     1077.906    107.72031            0 
4315200000   4.3152e+09    301.49351       107143    -107.2905   0.81907956   -855.37522    2513.8319   -311.28936    691.86243   -702.44458      349.599    -441.6371    56.169515    301.49548   -4292.1775    1088.3314    1148.8586    1083.3077    116.30451            0 
4315300000   4.3153e+09    295.51414       107143   -139.94847   0.81907956   -906.33304    2396.0543   -357.46027   -498.47859    436.09346    264.93234    544.04706   -410.11315     295.5162   -4296.4985    1065.2993    1166.9597    1056.0293    101.87721            0 
4315400000   4.3154e+09    297.66078       107143   -191.41158   0.81907956   -885.27108     2441.105    476.58574   -679.11098   -371.70949    196.38794    -80.45008    317.12503    297.66269    -4311.562    1077.5016     1128.069    1110.9822    109.73816            0 
4315500000   4.3155e+09    288.60461       107143    627.65886   0.81907956   -861.37193     2363.801     826.9321    251.68861    804.35588   -443.41812    34.069222   -201.19629    288.60661   -4265.7882    1036.5861    1166.3515     1087.412    114.06672            0 
4315600000   4.3156e+09    288.35057       107143   -800.14585   0.81907956   -914.07132    2308.2627   -1195.4979   -472.53382   -732.40576   -261.11647    238.38501    -103.2491    288.35253   -4302.7297     1050.632     1131.174    1100.4104    106.44202            0 
4315700000   4.3157e+09    295.83723       107143   -470.85863   0.81907956    -968.9512    2337.0467   -240.08213   -673.55071   -498.94304    388.20575    27.328946    174.08761    295.83923   -4296.0543    1037.7134    1130.8734    1051.9994    106.51697            0 
4315800000   4.3158e+09    286.97315       107143     579.0284   0.81907956   -913.90194    2293.0394    721.85622    885.60666     129.6223   -398.94791    121.81832   -179.84002    286.97514   -4322.4833    1058.8053    1172.7034    1065.5437    111.52893            0 
4315900000   4.3159e+09    293.89513       107143     443.3013   0.81907956   -985.39233    2298.9024    -215.7894    755.46418    790.22913   -366.87946   -615.04433   -48.796907    293.89704   -4296.5964    1044.2044    1103.5276     1056.367    107.10511            0 
4316000000    4.316e+09    295.07239       107143    614.70214   0.81907956   -975.77053    2321.6802    402.43533    1239.5797    202.09141   -102.99966    9.1747518   -661.72937    295.07444   -4293.5454    1043.1544    1136.0695    1022.6358    115.91508            0 
4316100000   4.3161e+09    292.72307       107143    60.517456   0.81907956   -988.27165    2282.9253    303.07911    -959.4425    837.91575   -275.43833    85.728248   -4.6177203    292.72505   -4290.8104    1050.2616    1082.0738    1054.2301    115.97323            0 
4316200000   4.3162e+09    293.07967       107143    100.84229   0.81907956   -919.06862    2356.1133    454.93345   -254.68394    102.27735   -49.523736   -742.42898   -648.11457    293.08153    -4315.351    1061.1007    1155.0149    1056.6472    123.51957            0 
4316300000   4.3163e+09    297.12545       107143   -34.632617   0.81907956   -936.65473    2383.7391    161.85714   -450.87084    185.11584    129.95632   -94.622752    -796.8465    297.12753   -4292.3286    1059.3659    1129.6555    1061.0956    105.55683            0 
4316400000   4.3164e+09    294.21309       107143   -500.19338   0.81907956   -941.02253    2346.8254   -556.87162   -523.68641   -420.02211    241.67351    232.27178   -367.45258     294.2151   -4302.5547    1030.0416    1156.9496     1057.111    117.42996            0 
4316500000   4.3165e+09    301.33134       107143    62.792184   0.81907956    -890.5434    2476.8514   -157.08792    216.33186    129.13261   -370.41174   -505.72317    60.309192    301.33343   -4302.4656    1113.9666    1146.3496     1042.008    109.59802            0 
4316600000   4.3166e+09     284.3468       107143     344.2933   0.81907956   -997.14237    2180.4493   -46.354839    206.04576    873.18898   -692.96041     397.8945    412.53836    284.34885   -4296.1457    1017.6593    1097.8993    1075.3899    108.05483            0 
4316700000   4.3167e+09    291.55387       107143    295.58104   0.81907956   -880.32127    2377.8098    443.87314    192.28954    250.58043    247.30114   -221.41486   -417.69839    291.55588   -4283.2455     1043.034    1188.7609    1059.2938    111.83543            0 
4316800000   4.3168e+09    291.93142       107143    82.700898   0.81907956   -939.27764    2323.0726   -787.31536   -65.798634    1101.2167    114.78289   -492.00774   -413.28611    291.93338   -4300.8683    1064.1985    1129.9322    1055.3951    112.06494            0 
4316900000   4.3169e+09    296.21206       107143    376.25292   0.81907956   -916.89983    2393.2868   -236.60351   -105.44565    1470.8079    -13.58659    694.41371   -601.82662    296.21417    -4269.984    1070.6918    1133.1127    1030.5551    118.72459            0 
4317000000    4.317e+09     285.7975       107143   -975.01111   0.81907956   -953.38448    2240.4189   -1508.2516   -1109.2656   -307.51613    364.12965   -613.23506   -546.27933    285.79962   -4290.6333    1053.8703    1126.9924    1042.3176    114.06862            0 
4317100000   4.3171e+09    292.15055       107143    120.42789   0.81907956   -957.48535    2307.3136    172.41733   -130.92728    319.79362   -310.44725    192.37673   -19.854476    292.15257   -4290.7355     1065.517    1095.0436    1063.5158    109.17363            0 
4317200000   4.3172e+09    293.41359       107143   -248.15401   0.81907956   -904.09235    2374.8212   -36.894175   -271.89928   -435.66858    291.01671   -116.61349    29.902569    293.41561   -4288.0568    1077.7596    1107.8561    1090.8553    107.49346            0 
4317300000   4.3173e+09     294.6826       107143   -11.521487   0.81907956    -932.6302    2360.4646   -234.12277    137.74761     61.81069   -212.26532   -246.18492    182.33312    294.68452   -4262.1852    1030.1118    1119.9662    1070.1099    109.36709            0 
4317400000   4.3174e+09    284.52754       107143   -434.94125   0.81907956    -923.2333    2256.3781   -421.78185    18.640491    -901.6824    94.261991   -14.087001   -46.094364    284.52938   -4258.1937    1046.7489    1132.2274    1055.6566    100.32746            0 
4317500000   4.3175e+09     292.4102       107143   -293.37031   0.81907956   -881.20688    2386.4938   -690.36098   -365.85664    176.10668   -397.76214    28.818592    58.523371    292.41219   -4297.1147    1079.1601    1130.3335    1088.2513    118.16299            0 
4317600000   4.3176e+09    293.65839       107143   -65.494706   0.81907956   -943.82478    2337.8244   -706.24949    164.87614    344.88923    238.79944    -593.6165   -323.03518    293.66023   -4272.1884    1064.0556    1124.8148    1034.1243    105.36898            0 
4317700000   4.3177e+09    289.57448       107143    483.50493   0.81907956   -876.88045    2359.1308    578.31518    1132.4031   -260.20351    479.31895    709.90212   -666.24994    289.57637   -4287.2849    1038.2017    1185.1782    1086.3995      100.625            0 
4317800000   4.3178e+09    293.88899       107143   -127.06678   0.81907956   -930.34346    2353.8827   -602.66216    2.5085685    218.95325   -297.23382   -257.36471   -485.29875    293.89111    -4296.775     1055.297    1129.3743    1073.2032    108.55699            0 
4317900000   4.3179e+09    289.74323       107143   -418.50179   0.81907956   -923.74677    2314.1503   -190.32614   -398.24335   -666.93587   -166.19117   -710.01158   -188.95547    289.74517   -4276.1666    1034.7907    1151.4351    1049.7872    116.40688            0 
4318000000    4.318e+09    289.30536       107143     304.5088   0.81907956    -880.7647    2352.2391    424.88831   -84.761886    573.39998    449.52032    642.71397    285.72116    289.30753   -4278.2923     1042.679    1164.1977    1074.4954    116.15551            0 
4318100000   4.3181e+09    296.36021       107143    207.19026   0.81907956   -940.56104    2371.2812     80.56347    146.92876    394.07854   -556.80559    161.22517    343.08723    296.36216   -4295.3933    1047.4927     1129.696    1062.4032    115.24031            0 
4318200000   4.3182e+09    284.98612       107143   -397.81774   0.81907956   -981.87841    2202.8576   -179.16523   -236.97092   -777.31707    411.22923    91.586757   -130.81519    284.98806   -4279.2116    1039.6613    1094.4163    1059.9855    103.27013            0 
4318300000   4.3183e+09     291.6124       107143   -570.95858   0.81907956   -967.05799    2291.7271   -477.57084   -99.603973   -1135.7009    51.716494   -34.690696    433.14915    291.61442   -4288.5433    1041.4411    1142.1608    1039.1444    98.738941            0 
4318400000   4.3184e+09    291.46981       107143    733.40662   0.81907956   -951.77404    2305.4177   -59.246118    1142.9598    1116.5062   -206.37789   -131.21626    122.24048     291.4719   -4280.0165    1054.1304    1158.4353    1009.7434    105.93336            0 
4318500000   4.3185e+09    290.05588       107143    23.594918   0.81907956   -901.75738    2339.6336    161.88097   -356.93592     265.8397   -308.38948   -232.64567    147.04281    290.05824   -4301.3055     1070.949     1162.379    1051.2613    114.95876            0 
4318600000   4.3186e+09    301.27812       107143   -336.25743   0.81907956    -1053.393    2313.4071    -240.2315   -781.55486    13.014073    535.57548   -228.59439   -25.134771    301.28002   -4311.5661    1024.3769    1119.6488    997.77834    116.36899            0 
4318700000   4.3187e+09    294.09635       107143   -410.65478   0.81907956   -1014.5635      2271.98     -311.546   -653.78814   -266.63018    65.455344    260.30795    445.70804    294.09846   -4278.5835    1002.9723    1111.6387    1037.9044     111.5045            0 
4318800000   4.3188e+09     294.1128       107143    320.29009   0.81907956   -916.21251    2370.5148    108.58049    223.10482    629.18496   -251.08358    450.24152   -95.919673    294.11471    -4273.936    1066.6634    1139.0909    1041.4144    110.55478            0 
4318900000   4.3189e+09    286.81906       107143   -379.93307   0.81907956   -872.82629     2332.393   -131.87021   -241.44488   -766.48412   -95.215046    227.36835    44.733565    286.82112   -4299.9244    1054.1972    1176.6153    1093.2123    103.07331            0 
4319000000    4.319e+09    295.91563       107143    245.87712   0.81907956   -969.21728    2337.6567    185.43336    256.23103    295.96696    75.965139    264.57306   -164.11895    295.91772   -4311.7378    1066.1959    1141.2018    1024.1962    110.92664            0 
4319100000   4.3191e+09     293.3118       107143   -788.72776   0.81907956   -916.75247    2361.0236   -1313.7135    -212.0332   -840.43655    111.08277    55.279319    393.52433    293.31371   -4273.5015    1063.3746    1158.6869    1019.1289    115.55864            0 
4319200000   4.3192e+09    294.14844       107143   -324.30229   0.81907956   -958.59153    2328.5341   -203.23046     -512.877    -256.7994   -153.64834   -153.40249   -218.90013    294.15057   -4314.6623    1056.5927    1160.0921    1031.0008     108.3852            0 
4319300000   4.3193e+09    284.75233       107143    475.60734   0.81907956   -994.00718    2188.1163   -59.487471    1176.2534    310.05609   -457.90503   -48.974131   -302.93088    284.75416    -4322.103     1030.142    1151.6051    1041.7204    104.62828            0 
4319400000   4.3194e+09    294.65144       107143   -572.23448   0.81907956   -967.77639    2324.9702   -542.01872    167.04714   -1341.7318    898.04891   -278.22667    38.775969    294.65343   -4291.0265    1003.3097    1120.7686    1089.9399    109.23195            0 
4319500000   4.3195e+09    301.40874       107143    48.609633   0.81907956   -1021.8822    2346.3776    218.92399   -598.57442    525.47932   -2.8550672    143.74179   -326.50994    301.41066   -4292.6329    1044.4907    1105.1019    1009.0449    112.11328            0 
4319600000   4.3196e+09    303.50556       107143   -380.16357   0.81907956   -987.26758    2404.4243   -324.66451   -328.68638   -487.13981     364.1634    302.63229  -0.78954602    303.50763   -4324.0969    1059.0005    1109.8587    1060.6112    107.35891            0 
4319700000   4.3197e+09    291.14255       107143   -620.08555   0.81907956   -1003.1187    2250.4159   -594.53723   -521.95528   -743.76415    414.73978   -214.60599   -350.24171    291.14456    -4288.454    1024.6845    1104.6153    1040.7285    115.30693            0 
4319800000   4.3198e+09    291.37557       107143    701.18227   0.81907956    -996.5734    2259.5651    945.67342    851.01444    306.85894   -96.910836    300.33513   -98.418911     291.3775   -4300.4213    1065.9085    1107.6629    1015.4621    114.81428            0 
4319900000   4.3199e+09    289.39522       107143   -824.81424   0.81907956   -971.76037    2262.2477   -1752.1887   -598.01868   -124.23531   -487.53497   -126.63567   -274.79761    289.39716   -4302.7753    1053.9504    1154.3327    1005.2661    117.46565            0 
4320000000     4.32e+09    288.46324       107143   -37.172234   0.81907956   -978.26075    2245.3324   -54.144079   -776.64725    719.27463    225.26938    406.44892   -707.54527    288.46539   -4288.2456    1085.2792    1112.4428    1007.9828    104.28006            0 
4320100000   4.3201e+09    289.92053       107143   -209.31437   0.81907956   -871.94397    2367.9344   -276.97684    -90.21967   -260.74661   -90.900895   -52.468438   -221.54265    289.92274   -4283.1483       1047.1    1190.0754     1057.551    116.47788            0 
4320200000   4.3202e+09    295.26275       107143    131.45235   0.81907956   -903.53358    2396.0445   -319.32681    181.32578    532.35807     1034.689    418.04926   -191.73872    295.26478   -4315.3032    1098.4788    1125.5844    1072.0565    115.64981            0 
4320300000   4.3203e+09    288.14927       107143    596.86897   0.81907956   -976.57327    2243.5112    727.97299    1414.1463    -351.5124   -255.28906   -187.63367   -219.94454    288.15132   -4299.6829    1055.4983     1109.221    1056.1813    102.20905            0 
4320400000   4.3204e+09     290.5331       107143    8.8646483   0.81907956   -1063.8851    2182.8388    461.81583    -151.1894   -284.03248    328.20104   -62.374646    -444.8027    290.53501   -4319.7752    1025.2151    1071.8816    1050.8627    107.93077            0 
4320500000   4.3205e+09    293.18963       107143   -170.57315   0.81907956   -987.35532    2289.0555   -287.80079    151.87335   -375.79202    777.79283    483.55665   -341.48036    293.19178   -4291.1527    1012.5478    1150.7856    1035.2352    105.22875            0 
4320600000   4.3206e+09    289.48171       107143    58.609706   0.81907956   -890.34489    2344.6297     1063.632    111.46843   -999.27133    -819.8601    124.28337    526.87535    289.48377   -4282.1584    1061.5804    1180.0157    1042.8508    107.36652            0 
4320700000   4.3207e+09      290.979       107143    966.66014   0.81907956   -886.02251    2365.6844    484.88816    1002.2377    1412.8545   -726.49123   -566.87609   -264.53929     290.9811   -4243.9567    1023.2536    1136.0504    1086.6131    112.01705            0 
4320800000   4.3208e+09    293.83767       107143    175.90971   0.81907956   -945.78772    2337.8649    227.39435    538.98889   -238.65413   -405.57305   -25.791821   -17.120325    293.83965   -4311.8712    1039.4716    1112.3184    1108.8866    105.40686            0 
4320900000   4.3209e+09    288.97462       107143   -296.44428   0.81907956   -930.45943    2298.8484   -499.94467   -324.72047   -64.667705    420.10876   -658.04711   -329.29908    288.97656   -4293.9272    1029.6463    1152.6385    1069.6713    111.51172            0 
4321000000    4.321e+09    294.06361       107143   -117.76374   0.81907956   -923.27014    2362.9074    104.95014   -479.54074    21.299385    4.8377576   -115.61637    434.55327    294.06556   -4280.5959    1076.3847    1115.1884    1055.6087    110.14393            0 
4321100000   4.3211e+09    289.54244       107143    295.09839   0.81907956   -1039.2762     2196.377   -94.819126    283.21207    696.90222    300.47263   -518.26941    -727.4069    289.54446   -4290.5456    1029.8908    1071.9155    1031.5719    117.89132            0 
4321200000   4.3212e+09    295.66264       107143    37.923971   0.81907956   -940.85582     2363.191    237.12432    320.07315   -443.42555   -122.60503   -294.55571   -217.25421    295.66465   -4280.1097     1024.595    1151.0212    1062.1882    101.44956            0 
4321300000   4.3213e+09    293.43078       107143   -194.63251   0.81907956    -868.9432    2410.1625    258.38453   -304.43102   -537.85104   -883.01763   -828.27592    308.47602     293.4327   -4277.7449    1050.9685    1138.6016     1104.889    114.34256            0 
4321400000   4.3214e+09    286.09654       107143   -670.62219   0.81907956   -918.26494    2278.8801   -400.30852   -1073.9561   -537.60192   -153.16378   -230.16176    333.09741    286.09856   -4287.4211    1033.7499    1135.1336    1090.9507    109.32189            0 
4321500000   4.3215e+09    280.84385       107143    69.717909   0.81907956   -850.19528    2288.2508    -369.9394    -144.1764    723.26953   -77.191888    128.45757    869.46516    280.84588   -4290.6995    1057.6703    1154.1655    1123.3577    105.31063            0 
4321600000   4.3216e+09    293.13534       107143    -803.3222   0.81907956    -990.6967    2285.1074   -205.22016   -2323.6468    118.90042    639.55568   -118.34825     129.5226     293.1373   -4317.4823    1025.4141    1135.3508    1058.5576    107.46304            0 
4321700000   4.3217e+09    289.34109       107143    105.65164   0.81907956   -979.33069    2254.0725    255.52809   -172.64807    234.07488   -414.99683   -98.398921    298.39281    289.34314   -4270.3131    1054.1399    1110.6769     1013.127     113.0387            0 
4321800000   4.3218e+09    291.96696       107143   -476.18814   0.81907956   -1049.3902    2213.3572    -226.1673   -270.25635   -932.14078    71.432575    180.29053   -384.44514    291.96894   -4315.0579    1021.2587      1081.25    1057.2912    105.86782            0 
4321900000   4.3219e+09    292.11106       107143   -105.61353   0.81907956   -933.87805    2330.4797    221.16107    230.73058   -768.73224    38.758212   -269.19265   -42.667482    292.11289   -4308.4973    1055.6262    1130.6795    1077.4783    110.83528            0 
4322000000    4.322e+09    292.77857       107143    31.234849   0.81907956   -988.76367    2283.0535   -855.42141    218.32233    730.80362   -670.62601   -283.15727   -313.44517    292.78059   -4316.2685    1043.0443    1145.5671    1029.9444    108.94902            0 
4322100000   4.3221e+09    299.96953       107143    13.570347   0.81907956   -997.37344    2354.8032    397.95086   -308.66234   -48.577485   -285.61325    43.935567    100.13597    299.97168   -4303.3962    1051.5535    1117.5027    1029.1689    107.79759            0 
4322200000   4.3222e+09    290.04272       107143   -43.934132   0.81907956   -875.52902    2365.7149   -439.63542     722.3659   -414.53287    565.71955    323.47717   -419.79213    290.04484   -4263.1037    1089.1372    1151.4099    1039.6541    107.37339            0 
4322300000   4.3223e+09    289.15814       107143   -254.30311   0.81907956   -928.77303    2302.5856   -784.71403   -150.83927    172.64396    451.24454   -550.49698   -522.86465    289.16012   -4249.4766    1052.8051    1104.5367    1062.0721    101.28961            0 
4322400000   4.3224e+09    291.70995       107143    201.96118   0.81907956   -978.28925     2281.586    179.89017    587.28528   -161.29192    18.109977    -254.0864   -187.51185    291.71187   -4249.5548    971.64277    1111.8928    1088.6168    99.113204            0 
4322500000   4.3225e+09    301.15075       107143   -348.56227   0.81907956   -1027.4025    2337.9743    117.87536   -918.90397   -244.65821    -514.8107   -143.67066   -458.17595    301.15273    -4306.409    1052.3284    1089.2664    1030.9988    106.41288            0 
4322600000   4.3226e+09    295.37456       107143     160.8343   0.81907956   -931.38299    2369.4445    -139.8647    761.74011   -139.37252   -230.03098   -204.83478   -463.53772    295.37659   -4289.8184    1078.4208    1114.8615    1056.2467     108.9064            0 
4322700000   4.3227e+09    290.95102       107143    208.20053   0.81907956   -950.14638    2301.2478    460.98381    105.09545    58.522331    -71.55168   -948.24986   -577.02717    290.95283   -4293.5658    1097.3077    1103.3699    1045.7267    97.015114            0 
4322800000   4.3228e+09     288.8694       107143   -536.69741   0.81907956   -1000.2737    2227.8582   -829.93457    -304.3179   -475.83975    91.697034   -58.515116   -705.38831    288.87113   -4307.7286    1025.5094    1143.7136    1027.7065    110.52536            0 
4322900000   4.3229e+09    291.67975       107143    207.02044   0.81907956   -896.98269    2362.5551    203.33705    107.14452    310.57974    950.00351   -112.10352     159.6812    291.68172   -4287.3211    1064.0547    1153.5879    1057.2706     115.4252            0 
4323000000    4.323e+09    292.95453       107143    280.72586   0.81907956   -995.89097    2277.8926   -706.54827     691.9326    856.79325   -110.83297    82.105235    143.16935    292.95671   -4300.8539    1077.4413    1101.2195    1024.4723    101.82977            0 
4323100000   4.3231e+09    289.09421       107143   -248.41638   0.81907956   -877.21663    2353.4276    133.61432    -516.1568   -362.70665   -194.88037     597.0921    619.04471    289.09606   -4300.9177     1053.813    1154.1863    1105.0247    110.67706            0 
4323200000   4.3232e+09    293.55232       107143   -403.33121   0.81907956   -988.78697    2291.6769    144.98816   -1158.4145   -196.56727    -161.3522     228.8122   -182.89082    293.55423   -4289.9536    1000.8437    1120.1923    1069.8392    110.29141            0 
4323300000   4.3233e+09    292.37713       107143   -99.476789   0.81907956   -948.43318    2318.8979    187.16026   -1039.9388    554.34816    169.32335   -419.49338   -258.34569    292.37901   -4293.7676    1060.5525      1143.17    1037.8826    103.72933            0 
4323400000   4.3234e+09    299.25011       107143    265.13662   0.81907956   -879.51512    2464.6219    1077.0986   -897.99289    616.30418    293.49472   -13.416569    400.71312     299.2522    -4300.426    1061.4547    1170.0816    1081.1177     108.2568            0 
4323500000   4.3235e+09    297.49437       107143   -28.195881   0.81907956   -936.13698    2388.3795   -170.77143   -251.09361    337.27739   -257.92072    -64.29271    235.17005    297.49649   -4271.7911     1020.612    1137.9791    1063.5312    113.53178            0 
4323600000   4.3236e+09    291.16739       107143   -98.964358   0.81907956   -881.31574    2372.4964    279.35564    -350.5602   -225.68851   -184.24406   -1040.4055   -439.98399    291.16937   -4300.3013    1079.5094     1141.737     1098.931    98.808226            0 
4323700000   4.3237e+09    289.23608       107143   -295.32212   0.81907956    -953.1259    2279.1038    553.13339   -1142.1442   -296.95558   -236.83539   -369.07892    -162.4852    289.23795     -4274.96    1067.8168    1123.5372    1022.9894    107.49062            0 
4323800000   4.3238e+09    288.69423       107143    372.27355   0.81907956   -941.78892    2284.3855    354.18625    522.61136    240.02305   -173.40845    149.38703    82.128367    288.69604   -4281.7164    1043.6099    1157.6282    1025.5258    113.16361            0 
4323900000   4.3239e+09     302.5506       107143   -145.21329   0.81907956   -839.10145    2541.9187    -388.1018    398.46071   -445.99877    118.05419    28.918695   -36.586907    302.55256   -4315.6704    1096.5002    1150.2521    1111.4767    118.33982            0 
4324000000    4.324e+09    284.24679       107143    712.46666   0.81907956   -947.04454    2229.4295    367.54354    703.99591    1065.8605    359.97762   -650.01424    250.35345    284.24884   -4297.3348    1054.0064    1121.0283    1070.6529     104.6026            0 
4324100000   4.3241e+09    292.12493       107143   -262.49001   0.81907956   -900.63632    2363.8764    34.120546   -103.04791   -718.54267   -391.44238   -570.03215   -176.88213    292.12694   -4280.8595    1027.2263     1149.212    1092.0945    111.69029            0 
4324200000   4.3242e+09    294.02954       107143    342.69832   0.81907956    -917.6336    2368.1633    -3.040243    303.91686    727.21834    7.8836729    57.824965     91.74484    294.03162   -4256.2335    1046.6418    1106.7174    1069.4304    115.81015            0 
4324300000   4.3243e+09    296.66628       107143    778.51363   0.81907956   -918.01572    2397.2469    1054.3843    813.89163    467.26492    319.20024   -141.16049    394.69141    296.66827   -4280.4656    1008.7593    1148.2421    1101.5437    103.90481            0 
4324400000   4.3244e+09    296.09669       107143    102.10881   0.81907956   -842.57629     2466.321     487.2652    524.04291   -704.98168    197.56067    45.134911    732.49775    296.09849   -4266.3374    1080.2835    1147.4107    1086.7251    109.34187            0 
4324500000   4.3245e+09    290.05416       107143   -657.67624   0.81907956   -793.58005    2447.7916   -1172.7835   -289.62162   -510.62365   -274.66571    864.81111    304.22532    290.05616   -4253.9982    1050.1332    1154.5712    1150.2018    105.51187            0 
4324600000   4.3246e+09    294.32423       107143    443.26628   0.81907956   -882.72675    2406.3633    1329.0734    184.79158    -184.0661    271.53422   -246.80612    -147.9653    294.32615   -4295.2633    1048.2571    1179.3045    1078.5703    106.40464            0 
4324700000   4.3247e+09    292.49844       107143   -194.44957   0.81907956   -924.71855    2343.9682   -889.82553   -23.625272    330.10208    751.85222   -348.94577   -553.14668    292.50041   -4288.6776    1020.7689    1168.8093    1063.1152    111.26561            0 
4324800000   4.3248e+09    295.31702       107143    87.274149   0.81907956   -917.84051     2382.344   -1124.4261    803.35441    582.89416    226.04943    361.98862    205.44115    295.31889   -4272.6574    1044.9677    1123.3323    1082.0803    104.43653            0 
4324900000   4.3249e+09    303.09755       107143    734.65492   0.81907956   -882.67408    2504.4583    384.35351    894.62816    924.98309   -402.79294    176.94035   -39.732492    303.09961   -4269.0997     1031.004    1122.4041    1127.0147    106.00285            0 
4325000000    4.325e+09    291.26018       107143   -465.26499   0.81907956   -934.85599    2319.9931   -395.64583   -1230.3012    230.15211   -551.77901   -680.25265    748.42533    291.26218   -4258.9927    1036.9823      1128.46    1058.3322    100.36222            0 
4325100000   4.3251e+09    293.73952       107143   -93.178778   0.81907956   -1072.6196    2209.9362    -42.48489   -168.91229   -68.139151    270.30805    264.56005    258.10791    293.74148   -4309.9003    1011.6134    1125.3013    998.48565    101.88028            0 
4325200000   4.3252e+09    294.62408       107143    670.52267   0.81907956   -878.38877    2414.0521    1085.9933    164.76694    760.80779    452.94684   -427.46081     412.9457     294.6259   -4286.7334    1036.2799     1159.995    1095.5596    116.51007            0 
4325300000   4.3253e+09    289.78526       107143   -308.04257   0.81907956   -911.32783    2327.0389    71.903718   -1129.5037    133.47226    134.21471   -358.62645   -677.54674    289.78718    -4268.949    1053.0542    1131.5703    1065.5805    107.41622            0 
4325400000   4.3254e+09    286.60043       107143   -4.2657014   0.81907956   -993.25272    2209.5234   -627.78458    1009.6458   -394.65836    423.10472    822.20399    414.74694     286.6026   -4321.7734    1027.9378    1109.6445    1083.2496    107.68869            0 
4325500000   4.3255e+09    301.25249       107143   -306.92775   0.81907956   -1000.7485    2365.7652    179.31879   -96.867695   -1003.2343   -413.07626   -701.79368   -19.619453    301.25452   -4289.9183    1023.8994    1097.3605    1068.7738    99.136224            0 
4325600000   4.3256e+09    292.96495       107143    429.88906   0.81907956   -845.17166    2428.7284   -412.02848    1333.3271    368.36855    429.19372    619.72153   -265.86998     292.9669    -4272.887    1064.8875    1164.2077    1090.5255    108.09465            0 
4325700000   4.3257e+09    291.81649       107143   -124.09617   0.81907956   -855.92794    2405.1379    734.34468   -625.71626   -480.91693   -179.52979   -297.48891    72.578268    291.81847    -4284.981    1084.3602    1180.5528    1051.7692    112.37099            0 
4325800000   4.3258e+09    293.11539       107143    547.46184   0.81907956   -924.03502    2351.5461    76.781717     376.3861    1189.2177   -24.672244   -219.72467    200.93061    293.11741   -4284.7405    1044.9828    1158.5472    1037.4042    119.77133            0 
4325900000   4.3259e+09    296.98741       107143    20.187774   0.81907956   -960.56255    2358.2887    89.967404   -618.73458     589.3305   -555.43854   -138.00999     452.9492    296.98948   -4274.7827    1005.4694    1168.8469    1033.7631    106.14083            0 
4326000000    4.326e+09    296.99919       107143    931.93587   0.81907956   -999.24689     2319.736    1008.5255    604.40624    1182.8759    188.03756    208.82592    299.96271    297.00127   -4298.4114    1046.5637    1122.2387    1021.4193    108.94281            0 
4326100000   4.3261e+09    295.31824       107143    249.78414   0.81907956   -1006.9222    2293.2759     190.3852   -286.15843    845.12564    115.75804   -127.81845    -726.4368    295.32005   -4316.0278    1044.3884    1092.5702    1065.3515    106.79551            0 
4326200000   4.3262e+09     287.3804       107143   -484.10142   0.81907956   -948.53368    2262.9587   -1309.3934    232.81506   -375.72592   -43.969065    130.73807    507.61151    287.38239   -4297.4094    1031.7209    1157.9927    1054.1007    105.06128            0 
4326300000   4.3263e+09    287.86909       107143    347.19003   0.81907956   -961.78559    2255.1678    643.73104    275.19527    122.64377   -461.14231    134.74762   -334.10381    287.87098   -4273.9335    1071.8453    1120.4077    1003.7766    116.11833            0 
4326400000   4.3264e+09    294.63166       107143   -224.14372   0.81907956   -976.49106    2316.0345   -666.23705    190.45159   -196.64568   -192.34734   -529.57897    298.24414    294.63358   -4296.3296     1045.104     1125.417    1040.1671    109.15047            0 
4326500000   4.3265e+09    296.84549       107143   -1002.6661   0.81907956   -936.53536    2380.7298   -1160.4257   -1206.9634   -640.60911   -226.98382    83.387206   -276.64937    296.84757   -4313.7145    1056.6717    1145.4308    1065.3087     109.7679            0 
4326600000   4.3266e+09     295.8053       107143    631.17796   0.81907956    -895.2145    2410.4266    251.55051    1058.9519    583.03148    638.68489   -176.29736    462.89014    295.80748   -4302.7083    1046.3747    1161.3627    1087.0405    112.71595            0 
4326700000   4.3267e+09    299.37708       107143   -309.81177   0.81907956   -1021.7636    2323.7923   -556.65541   -206.59497   -166.18492   -590.73151     788.1745    449.43032    299.37932   -4324.8249    1034.7394    1107.3644    1054.3179    106.63953            0 
4326800000   4.3268e+09    293.97602       107143   -269.81477   0.81907956   -1010.0697    2275.1291   -466.52858    -306.1393   -36.776437    401.00894   -218.08792     127.8614    293.97801    -4300.786    1034.7527    1129.5668    1020.3306    106.06622            0 
4326900000   4.3269e+09    296.74658       107143     674.7226   0.81907956   -987.85962    2328.3003    5.8014783    1274.5845    743.78184   -5.3784333    538.07924    265.19407    296.74869   -4307.4192    1048.1195    1130.0581    1031.6975    109.68456            0 
4327000000    4.327e+09    297.34034       107143    306.66123   0.81907956   -967.64928     2355.146    442.18588   -53.032449    530.83025    16.778237    528.31735   -201.07471    297.34251   -4264.7711    1040.5836    1123.4012    1023.3319    109.80512            0 
4327100000   4.3271e+09    290.85202       107143    41.606125   0.81907956   -890.64068    2359.6472   -555.67308    589.77511    90.716345   -266.08466   -42.969393   -549.23965     290.8542   -4293.1944    1131.6752    1110.2242    1043.5097    117.14461            0 
4327200000   4.3272e+09     289.6699       107143   -224.18797   0.81907956   -963.49257     2273.585   -402.95746    274.42874    -544.0352    411.32859   -547.00873    376.05771    289.67202   -4298.7305    1061.4081    1154.9182    1015.8559    103.05569            0 
4327300000   4.3273e+09    297.25009       107143   -93.893007   0.81907956   -956.18402    2365.6027    618.75837   -831.89103   -68.546365   -412.01738   -100.50778   -158.98676    297.25214   -4303.5511    1088.0259    1137.6138    1012.9668    108.76056            0 
4327400000   4.3274e+09    294.84886       107143    532.01303   0.81907956   -910.89711    2384.0556    758.18459    563.66578     274.1887    113.74889   -236.82351    209.40675    294.85088   -4280.5389     1035.292     1140.903    1078.1197    115.32705            0 
4327500000   4.3275e+09    292.88597       107143     374.1327   0.81907956   -872.22286    2400.7945    627.43739    688.20508   -193.24437     42.54065    93.275536    323.55918    292.88784   -4284.1831    1067.5246    1166.3861    1062.7382    115.31136            0 
4327600000   4.3276e+09    288.81605       107143    245.90804   0.81907956    -927.7051    2299.8307    60.223665    434.63093    242.86952   -584.10373    221.46023   -308.16028    288.81804   -4301.0681    1078.6228    1148.1309     1031.914    114.69529            0 
4327700000   4.3277e+09    296.95875       107143    -938.2951   0.81907956   -899.98749    2418.5434   -1960.2997   -704.51899   -150.06656    154.13781   -463.84913   -88.914397    296.96084   -4272.9784    1042.9401     1170.366    1038.5151    121.16967            0 
4327800000   4.3278e+09    292.27082       107143   -373.76337   0.81907956    -892.4958    2373.6472    103.56181   -525.70014   -699.15179   -292.86589    149.08559   -206.81871    292.27269   -4277.0255    1057.7104     1145.906    1065.9387     114.9746            0 
4327900000   4.3279e+09    296.01233       107143     564.4233   0.81907956   -978.49838    2329.4563    360.40081    391.84757    941.02152    100.86143   -75.206036   -331.78462    296.01435   -4302.4974    1039.8693    1114.5401    1064.5499    105.03969            0 
4328000000    4.328e+09     294.7812       107143   -559.36661   0.81907956   -936.99196    2357.2047   -251.32002    -648.7497   -778.03012   -118.17103    238.11189   -25.034118    294.78304   -4330.9751     1107.887     1125.013    1048.0548    113.02831            0 
4328100000   4.3281e+09    297.45044       107143   -219.03485   0.81907956   -892.02831    2431.9973   -853.22706   -75.920411    272.04293    238.74809   -277.00133    77.435052    297.45249   -4289.2637    1084.6426     1167.162    1026.3906    119.04015            0 
4328200000   4.3282e+09    292.77577       107143    271.45058   0.81907956   -960.36706    2311.4188    718.69917   -201.37183    297.02438    11.199224    487.21044    501.08503    292.77782   -4300.1154     1057.186    1141.6012    1034.0586    106.90264            0 
4328300000   4.3283e+09    289.67851       107143   -643.39278   0.81907956   -966.29055    2270.8833    154.49829   -1169.3792    -915.2974    10.885113   -8.8907174   -267.82022     289.6804   -4302.3714    1068.4381    1119.8058    1038.0187    109.81829            0 
4328400000   4.3284e+09    296.73077       107143   -86.960547   0.81907956   -994.89591    2321.0873    210.35092    173.68726   -644.91983   -255.73308     290.7509     179.5378    296.73287   -4335.2478    1095.9728    1104.6615    1033.7929     105.9246            0 
4328500000   4.3285e+09    298.05974       107143    324.50842   0.81907956   -919.20473    2411.6299    410.19023    368.45266    194.88237    -372.8333    492.77849    448.98854    298.06162   -4288.2002    1083.6899    1169.8294    1009.2649     106.2113            0 
4328600000   4.3286e+09    293.34467       107143   -713.87861   0.81907956   -959.84648    2318.2969   -91.098488   -102.78733     -1947.75   -151.89213    125.74279   -674.56473    293.34668   -4286.5509     1062.298    1117.5236    1038.8931    107.98987            0 
4328700000   4.3287e+09     289.8318       107143   -194.02272   0.81907956   -936.32915    2302.5576   -471.92319   -518.34351    408.19853    -166.3108   -553.23572    456.04611    289.83388   -4312.5578    1038.1404     1184.625    1041.4537    112.00964            0 
4328800000   4.3288e+09    293.89948       107143    216.99728   0.81907956   -969.27045    2315.0729    266.82665    64.327771    319.83743   -687.42608   -43.518063    19.500082    293.90144   -4305.2147    1029.6775    1122.6133    1082.5568    101.09671            0 
4328900000   4.3289e+09     300.3109       107143   -2.3002021   0.81907956   -996.52744     2359.464   -534.52644   -277.62223    805.24806   -1231.6938   -14.353092   -121.33002      300.313   -4287.7252    1056.7897    1086.0257    1046.8185    101.56382            0 
[...]
5294200000   5.2942e+09    296.20664       107143   -681.69842   0.81907956   -988.82844    2321.2976   -1168.3504   -720.66647   -156.07841    203.05828   -174.97036    210.92175    296.20894   -4286.4119     1026.717    1117.1017    1056.7536    97.011143            0 
5294300000   5.2943e+09    299.52765       107143    131.35996   0.81907956   -998.38669    2348.8518    555.07274    363.95485   -524.94769   -383.40117    167.50814    -139.7844    299.53025   -4307.8453    1042.0266    1119.8516    1034.1123    113.46812            0 
5294400000   5.2944e+09    287.13227       107143   -470.23225   0.81907956   -988.43787    2220.2816   -1754.0223     228.7376    114.58799    546.58581   -41.212506   -442.39739    287.13473   -4309.3306    1039.2938    1094.5509    1081.0492    105.99873            0 
5294500000   5.2945e+09     290.5692       107143    -45.94458   0.81907956   -895.88804    2351.2393   -126.40541    387.05023   -398.47856   -564.66773   -207.64208   -66.757686    290.57163   -4302.5906    1084.2852     1161.113    1046.2544    115.04991            0 
5294600000   5.2946e+09     292.8858       107143    137.01502   0.81907956   -989.38033    2283.6351    681.82697   -843.01825    572.23634   -94.287291   -50.361727   -284.36614    292.88821    -4334.012    1058.2895    1112.4822     1068.297    105.56296            0 
5294700000   5.2947e+09    287.83101       107143    36.630456   0.81907956    -936.4231    2280.1048   -21.684311    82.289129    49.286549   -71.035688    486.04886   -16.226523    287.83336   -4292.0383    1037.3774    1116.9411    1100.1956    101.10108            0 
5294800000   5.2948e+09    291.70076       107143   -844.87338   0.81907956    -877.3651    2382.4075    -856.4539   -492.03728    -1186.129   -72.443972   -142.99746   -58.122753    291.70329   -4279.3727    1087.4166    1116.6283    1092.5441    105.41855            0 
5294900000   5.2949e+09    289.12318       107143   -413.62127   0.81907956   -945.03468    2285.9334    -26.16679   -1546.4345    331.73751    -138.9854    372.86364   -99.849284    289.12543   -4286.6406    1029.4791    1116.4899    1088.9225    106.71442            0 
5295000000    5.295e+09    287.66795       107143    549.54746   0.81907956   -1016.9709    2197.7348    465.25168    633.21346    550.17724   -316.56053    244.86929   -800.07064    287.67013   -4322.3556    1012.9608    1094.1121    1088.1226    110.18932            0 
5295100000   5.2951e+09    297.40778       107143    123.28242   0.81907956   -1010.8852    2312.6636    349.07654   -486.18634    506.95705    325.43562    112.07933    536.84602    297.41012   -4317.5431    1018.7923    1089.7302    1098.8282     99.30718            0 
5295200000   5.2952e+09    299.43333       107143    -152.9536   0.81907956   -974.58869    2371.5958    167.38678   -250.43318    -375.8144     53.94565   -75.641509    450.78651    299.43595   -4305.6938     1056.953    1088.8245    1077.2921    108.03548            0 
5295300000   5.2953e+09    294.47602       107143    53.872249   0.81907956    -921.1747    2369.6116    297.19117   -575.38556    439.81114    297.17853   -144.13091   -759.08253    294.47845   -4276.5343    1066.8928     1109.072     1063.495    115.89988            0 
5295400000   5.2954e+09    283.30691       107143    515.87805   0.81907956    -1001.926    2164.0448    1286.4763    160.99092    100.16691   -732.20703   -434.13465   -204.41278    283.30928   -4301.2638    1023.3577     1152.847    1013.1993    109.93387            0 
5295500000   5.2955e+09    296.89779       107143   -383.32473   0.81907956   -940.17907    2377.6706    322.76074   -395.89162   -1076.8433   -255.43799    -38.21902   -735.00992    296.90021   -4305.8144    1099.1558    1121.9725    1030.7964    113.71071            0 
5295600000   5.2956e+09    289.94018       107143   -403.96973   0.81907956   -941.61019    2298.4878   -359.39997   -42.321873   -810.18735    1109.8622   -384.47035    282.73246    289.94245   -4281.0826    1039.3398    1148.1193    1042.6833    109.33003            0 
5295700000   5.2957e+09      291.334       107143    355.62727   0.81907956   -1000.3977    2255.2763    1438.4203     174.9333    -546.4718    63.446016    657.57609    45.069886    291.33648   -4294.7647    1037.9463    1127.8907     1028.824    99.705922            0 
5295800000   5.2958e+09    294.01286       107143    152.11383   0.81907956   -955.13501    2330.4754   -33.558816    373.14635    116.75396    230.94604     109.4478     197.1136    294.01521   -4269.0967    1069.6555    1102.6362     1040.186    101.48404            0 
5295900000   5.2959e+09    292.29923       107143    315.50723   0.81907956   -942.96324    2323.4973   -319.08842    418.91981    846.69029   -46.272291   -131.89179   -177.00936     292.3017   -4287.2186    1052.0907    1137.1484    1050.1883    104.82785            0 
5296000000    5.296e+09    295.45527       107143    525.04102   0.81907956   -933.79998    2367.9295    18.300139    708.20955    848.61336    182.34812    12.649875    237.16887    295.45767   -4284.6047    1075.1991    1106.9498     1059.793    108.86278            0 
5296100000   5.2961e+09    287.85439       107143    232.35196   0.81907956   -876.94288    2339.8463    37.600259   -13.743593     673.1992   -447.42319   -762.15164    915.38901    287.85657   -4296.3485     1068.313    1166.1251    1072.9946    111.97292            0 
5296200000   5.2962e+09    285.14073       107143   -338.33384   0.81907956   -940.72097     2245.743   -431.87656   -176.45382   -406.67112    277.11105   -41.199716   -146.74276    285.14321   -4288.9134    1040.9612    1143.8661     1050.032     113.3332            0 
5296300000   5.2963e+09     295.2514       107143    840.30721   0.81907956    -901.9081    2397.5431    651.71095    532.08335    1337.1273    358.71139   -410.88172    76.706646    295.25375   -4280.4092    1084.2858    1134.6881    1056.1023    103.42498            0 
5296400000   5.2964e+09    295.31768       107143    574.49101   0.81907956   -962.77412    2337.4178    719.37592    410.57649    593.52062    275.56497   -656.71831   -151.09253    295.31985   -4286.1911    1049.7298    1107.7123    1056.5192    109.45567            0 
5296500000   5.2965e+09    290.82726       107143    23.478247   0.81907956   -924.56867    2325.4425    416.06095   -307.07752   -38.548685    672.43775    199.15701   -339.65013    290.82969   -4283.1166    1049.6507    1142.7785    1057.4129    108.70582            0 
5296600000   5.2966e+09    290.37655       107143    181.13205   0.81907956   -933.21452      2311.76    654.49654     38.12442   -149.22481     365.3631    92.352581   -481.13445    290.37893   -4283.6383    1052.0606    1131.3492    1062.1786    104.83541            0 
5296700000   5.2967e+09    288.36309       107143   -364.71986   0.81907956    -998.7378    2223.7361   -785.05728   -531.40859    222.30629    234.42123    77.679631   -286.08871     288.3654   -4303.7995    1028.8628    1117.4315    1054.0279     104.7394            0 
5296800000   5.2968e+09     296.1172       107143   -91.177137   0.81907956   -932.02147    2377.1051   -411.10986    443.17396   -305.59551   -273.41924    50.373773   -376.52989    296.11955   -4336.3719    1078.4524    1106.9025     1104.949    114.04655            0 
5296900000   5.2969e+09    287.67738       107143    1723.2106   0.81907956   -857.17423    2357.6368    2109.3382    1683.2951    1376.9986    307.17459    72.846774    31.498828    287.67962   -4221.5054    1025.1131    1157.3719    1068.4873    113.35887            0 
5297000000    5.297e+09    297.90267       107143    502.56669   0.81907956   -932.61718    2396.4622    491.17115    706.38015    310.14877    588.34067    352.97567    66.730862    297.90514   -4279.2594    1052.5736    1134.2041    1044.8035      115.061            0 
5297100000   5.2971e+09    290.91988       107143    181.45211   0.81907956   -941.16051    2309.8857   -38.891534    155.53727    427.71059    846.60078     269.0133    206.29209    290.92229   -4300.4757    1063.5523    1158.0492    1035.4515    102.26225            0 
5297200000   5.2972e+09    288.60018       107143   -460.85702   0.81907956    -959.6318    2265.4917    138.32659   -455.24414   -1065.6535    179.43255    413.68058   -128.21185    288.60251   -4303.4019    1044.0145    1153.8437    1037.0757    108.83626            0 
5297300000   5.2973e+09    293.98394       107143    872.88756   0.81907956   -859.92417     2425.363    1435.9338    623.09925    559.62967   -74.842263   -275.82933    254.05804    293.98631   -4296.1624    1100.1323    1135.5086    1086.6765    113.92094            0 
5297400000   5.2974e+09    288.88908       107143   -7.2461579   0.81907956   -897.01246    2331.3395   -365.44444    13.084094    330.62187    569.09545   -347.56285    69.391832    288.89137   -4287.1999    1037.0118    1140.6651     1092.723    119.78755            0 
5297500000   5.2975e+09    288.67923       107143    129.86658   0.81907956   -994.49472    2231.5121    280.46685   -473.56138    582.69427    413.14806   -538.32448    678.23324    288.68159    -4289.636    1029.8937    1095.9948    1057.9144    111.33828            0 
5297600000   5.2976e+09    303.99403       107143    245.19036   0.81907956   -939.96388    2457.1867    607.26239    142.70645   -14.397759    74.539195     277.0815   -234.44575    303.99639   -4258.0573    1046.0125    1114.2931    1051.5884    106.19939            0 
5297700000   5.2977e+09    297.40087       107143    634.57404   0.81907956   -929.08382    2394.3878    238.63521    636.01776    1029.0691   -256.54756    1179.7467    396.65803    297.40354    -4296.727    1036.6949    1138.4371    1083.3583    109.15288            0 
5297800000   5.2978e+09     297.2599       107143   -301.06972   0.81907956   -958.16785    2363.7284   -43.217349   -1011.2059    151.21412    330.78905   -110.70641    261.53489    297.26227   -4304.5189    1080.3044    1094.4974    1066.8381    104.71122            0 
5297900000   5.2979e+09    292.48329       107143   -399.65893   0.81907956    -979.9011    2288.6163     555.1613   -262.31701   -1491.8211    449.02375    193.83769    288.95729    292.48584   -4294.8344    1056.5345    1128.2444    1024.2236    105.93091            0 
5298000000    5.298e+09    293.10139       107143    947.06446   0.81907956   -928.79603    2346.6286     590.8797    700.88471     1549.429   -951.56205   -590.16073    613.24813    293.10393   -4293.6211    1046.9754    1103.6576    1112.7704    101.42173            0 
5298100000   5.2981e+09     296.8741       107143    274.44317   0.81907956    -965.1404    2352.4446    619.33757    -635.4557    839.44765   -83.043497    334.28325    384.72897    296.87653   -4284.0717    1037.4775     1109.336    1066.8423     105.2754            0 
5298200000   5.2982e+09    287.71882       107143   -534.98862   0.81907956   -970.43828    2244.8359   -311.28398   -360.49883   -933.18304    257.10336   -74.823164    89.502784    287.72129   -4308.5409    1046.9194    1102.1456    1087.3055    101.73209            0 
5298300000   5.2983e+09    299.65098       107143    263.61613   0.81907956   -938.83569     2409.781    1249.2699    196.42357   -654.84507   -160.15038     331.1449    373.17241    299.65328   -4272.5344    1021.3581    1156.3809    1042.0028    113.95689            0 
5298400000   5.2984e+09    284.49851       107143   -349.75164   0.81907956   -912.45794    2266.8291    -807.2838    121.02796   -362.99909   -113.90643    288.84612   -723.17288    284.50099   -4295.5062    996.77861    1172.4868     1110.473    103.30982            0 
5298500000   5.2985e+09    296.60935       107143    421.91135   0.81907956   -983.17635      2331.45   -3.1982664    749.64386    519.28846    69.532748   -203.32938   -148.62502    296.61172   -4287.4629    1019.3669    1140.5658    1039.3564    104.99746            0 
5298600000   5.2986e+09    283.91601       107143    800.95607   0.81907956   -913.91536    2258.8622    699.32435    546.08687     1157.457    337.31287   -634.99278    183.39147    283.91848   -4287.6504    1077.7841     1150.191    1028.3137    117.44628            0 
5298700000   5.2987e+09    293.73615       107143    926.33912   0.81907956   -922.77342    2359.7447    1098.2772    1336.1179    344.62217   -3.4395244    30.035333    345.46083    293.73848    -4298.612    1058.7339    1143.3516    1060.8688    112.88422            0 
5298800000   5.2988e+09    289.59913       107143   -267.26833   0.81907956   -986.57782    2249.7089   -97.216436   -593.14667   -111.44187    450.01065    54.112135   -247.83585    289.60128   -4302.7556    1046.9104    1122.3131    1039.8872    107.06717            0 
5298900000   5.2989e+09    300.46957       107143   -232.31851   0.81907956   -906.39729    2451.3672   -477.04686   -341.40569    121.49701   -115.37939    181.54864    159.85757    300.47194   -4275.4746    1100.5118    1132.5563    1034.7856    101.22368            0 
5299000000    5.299e+09    291.69273       107143    245.12443   0.81907956   -984.86872    2274.8141    1621.7028   -839.10594   -47.223562   -228.55807    813.08192    381.16052    291.69514   -4312.8618    1081.8183    1072.8124    1062.3979    110.96448            0 
5299100000   5.2991e+09    300.65587       107143   -549.33916   0.81907956   -1031.1014    2328.7451   -453.75303   -296.19313   -898.07133    32.422116    367.98284   -44.347153    300.65833   -4295.9418    1059.0624     1062.597    1046.2233    96.957768            0 
5299200000   5.2992e+09    291.39542       107143   -261.87259   0.81907956   -995.33226    2261.0281   -146.18912   -9.4722413   -629.95642    8.3770699    459.30559     358.2541     291.3979   -4311.0192    1055.4659    1081.4088    1079.2832    99.528981            0 
5299300000   5.2993e+09    289.75507       107143    -265.1836   0.81907956   -902.23214    2335.7972    59.575283   -784.09396   -71.032114   -211.75876    98.897061   -286.07117     289.7576   -4287.6668    1069.1433    1129.0212    1071.9355    115.33462            0 
5299400000   5.2994e+09    289.48333       107143    750.41499   0Generated thermo.dat
Done!
stress
average  3.10855
square average  25.9972
number of blocks  520
variance  .17723364032943372604
pxx
average  7.90293
square average  155.891
number of blocks  520
variance  .42388926668842872005
pyy
average  -16.1203
square average  488.043
number of blocks  520
variance  .66242405647451681761
pzz
average  -15.6927
square average  470.931
number of blocks  520
variance  .65731119943588832315
xx
average  2207.27
square average  4.87246*10^06
number of blocks  520
variance  .89780405177556165037
yy
average  2170.59
square average  4.71156*10^06
number of blocks  520
variance  .43644521199908136570
zz
average  2170.72
square average  4.71214*10^06
number of blocks  520
variance  .46961850310814890370
xx
average  -1404.69
square average  1.97325*10^06
number of blocks  520
variance  .42967765198504868875
yy
average  -1405.23
square average  1.97478*10^06
number of blocks  520
variance  .45709597544632874313
zz
average  -1404.89
square average  1.97382*10^06
number of blocks  520
variance  .44740254632884965458
rm: cannot remove `running.average.out': No such file or directory
stress
average  3.44602
square average  586.766
number of blocks  9000
variance  .25273854434080906748
average  2.85376
square average  581.444
number of blocks  19000
variance  .17370574845234533481
average  2.71569
square average  580.796
number of blocks  29000
variance  .14061699360489581431
average  2.78481
square average  583.01
number of blocks  39000
variance  .12145008822493127254
average  3.05013
square average  586.392
number of blocks  49000
variance  .10852336407739814531
average  3.10855
square average  587.231
number of blocks  52000
variance  .10539011018569020867
average  3.10855
square average  587.231
number of blocks  52000
variance  .10539011018569020867
average  3.10855
square average  587.231
number of blocks  52000
variance  .10539011018569020867
average  3.10855
square average  587.231
number of blocks  52000
variance  .10539011018569020867
average  3.10855
square average  587.231
number of blocks  52000
variance  .10539011018569020867
average  3.10855
square average  587.231
number of blocks  52000
variance  .10539011018569020867
average  3.10855
square average  587.231
number of blocks  52000
variance  .10539011018569020867
average  3.10855
square average  587.231
number of blocks  52000
variance  .10539011018569020867
average  3.10855
square average  587.231
number of blocks  52000
variance  .10539011018569020867
average  3.10855
square average  587.231
number of blocks  52000
variance  .10539011018569020867
average  3.10855
square average  587.231
number of blocks  52000
variance  .10539011018569020867
average  3.10855
square average  587.231
number of blocks  52000
variance  .10539011018569020867
average  3.10855
square average  587.231
number of blocks  52000
variance  .10539011018569020867
average  3.10855
square average  587.231
number of blocks  52000
variance  .10539011018569020867
average  3.10855
square average  587.231
number of blocks  52000
variance  .10539011018569020867
pressure, stress.strain, ktensor, virial are all concatenated
averages computed will all accumulated data until now
.81907956   -912.89763    2322.0951    370.65061    1124.3404    756.25394   -364.14896   -78.334515   -79.022098    289.48583    -4284.681    1082.4116    1130.1051    1042.8421    116.42454            0 
5299500000   5.2995e+09    287.97623       107143    521.56183   0.81907956   -935.55335    2282.5974     316.2331    543.76508     704.6873    518.45245    129.35869    270.39743    287.97867   -4288.5285    1036.3999    1132.4057     1070.478    113.69162            0 
5299600000   5.2996e+09    296.73343       107143     47.14959   0.81907956   -861.22457    2454.7883   -222.32366    37.384216    326.38821   -459.56594    281.23096   -189.18248    296.73583    -4285.989    1057.4863    1163.1315    1098.5644    105.58218            0 
5299700000   5.2997e+09    294.37943       107143    151.72609   0.81907956    -1000.988    2288.7189    804.98507   -410.32331    60.516521    290.83538   -685.92959   -119.06794    294.38182    -4276.381    1054.8897    1101.0735    1018.8695    100.56038            0 
5299800000   5.2998e+09    295.64117       107143    406.06834   0.81907956   -923.31872    2380.4881    -13.11808    -155.6451    1386.9682   -31.673708   -57.116531   -147.86479     295.6437   -4262.6992    1048.4539    1115.2852    1070.0155      105.626            0 
5299900000   5.2999e+09    294.63658       107143    539.70354   0.81907956   -933.90555     2358.675    830.02415    1171.2507   -382.16426   -101.29864    144.06405   -54.869873    294.63893   -4304.5795     1069.057     1123.591    1067.7162     110.3097            0 
5300000000      5.3e+09    293.58914       107143    55.293295   0.81907956    -938.7683     2342.107    74.005286   -671.33901    763.21361   -177.56884    276.67264   -256.43867     293.5916   -4279.1474    1047.5367    1117.1335    1074.3311     101.3778            0 
Loop time of 64198 on 48 procs for 200000000 steps with 3750 atoms

Pair  time (%) = 21571.9 (33.6022)
Bond  time (%) = 5015.02 (7.8118)
Neigh time (%) = 11671.2 (18.1801)
Comm  time (%) = 18657 (29.0617)
Outpt time (%) = 1.24719 (0.00194272)
Other time (%) = 7281.57 (11.3424)

Nlocal:    78.125 ave 89 max 66 min
Histogram: 3 3 2 5 8 10 7 4 1 5
Nghost:    1259.5 ave 1296 max 1228 min
Histogram: 3 5 5 3 10 11 5 1 3 2
Neighs:    5966.77 ave 6883 max 4989 min
Histogram: 5 2 3 3 8 10 5 4 6 2

Total # of neighbors = 286405
Ave neighs/atom = 76.3747
Ave special neighs/atom = 6.26667
Neighbor list builds = 22301488
Dangerous builds = 0
System init for write_restart ...

real	5348m39.014s
user	0m0.086s
sys	0m0.201s
