LAMMPS (7 Aug 2019)
OMP_NUM_THREADS environment is not set. Defaulting to 1 thread. (src/comm.cpp:93)
  using 1 OpenMP thread(s) per MPI task
# THIS IS A LAMMPS FILE TO GENERATE SQL UNDER AMBIENT CONIDTIONS
# phase 2: deforming to adjust density to desired (often close to experimental) value

#molecule       	SQL infiles/UA.MG.SQL.txt
#atom_style     	template SQL

atom_style	molecular

variable	scalefactor equal 0.99193803117

variable       	Nmol equal 125
variable       	eqmT equal 293
variable       	eqmP equal 0.987	# in atm; note 0.1MPa = 0.987 atm
variable       	Pout equal 0.1		# in MPa

variable        pxx equal pxx
variable        pyy equal pyy
variable        pzz equal pzz
variable        pxy equal pxy
variable        pxz equal pxz
variable        pyz equal pyz
variable	a equal cella
variable 	b equal cellb
variable 	c equal cellc
variable 	rho equal density
variable 	vol equal vol
variable 	etotal equal etotal

read_restart	restart_files/sql.gphase1.*	# note that this sample was produced in phase 1
WARNING: Restart file used different # of processors (src/read_restart.cpp:738)
  restoring atom style molecular from restart
  triclinic box = (110.97 110.97 110.97) to (159.03 159.03 159.03) with tilt (0 0 0)
  4 by 4 by 6 MPI processor grid
  restoring pair style lj/cut from restart
  restoring bond style harmonic from restart
  restoring angle style harmonic from restart
  restoring dihedral style multi/harmonic from restart
  restoring improper style harmonic from restart
  3750 atoms
  3625 bonds
  4250 angles
  3875 dihedrals
  750 impropers
  3 = max # of 1-2 neighbors
  3 = max # of 1-3 neighbors
  6 = max # of 1-4 neighbors
  8 = max # of special neighbors
  special bonds CPU = 0.0125461 secs
  read_restart CPU = 0.111385 secs
neighbor       	0.3 bin
neigh_modify   	every 1 delay 0 check yes

# from Mondello & Grest (1995) JCP 103, 7156: model A
# from Moore et al (Cummings group) (2000) JCP 113, 8833
mass           	1 14.026
mass           	2 15.034
mass           	3 15.034
mass           	4 13.018

pair_style     	lj/cut 10			# MG do not say if cutoffs obey BL rules
pair_modify    	shift yes			# MG do not really mention if LJ is shifted in their above cited paper, they do so in a follow-up paper.
special_bonds  	lj 0.0 0.0 0.0

bond_style     	harmonic
angle_style    	harmonic
dihedral_style 	multi/harmonic
improper_style	harmonic

pair_coeff     	1 1 0.093 3.93 10
pair_coeff     	1 2 0.145 3.93 10
pair_coeff     	1 3 0.145 3.93 10
pair_coeff     	1 4 0.086 3.87 10
pair_coeff     	2 2 0.227 3.93 10
pair_coeff     	2 3 0.227 3.93 10
pair_coeff     	2 4 0.134 3.87 10
pair_coeff     	3 3 0.227 3.93 10
pair_coeff     	3 4 0.134 3.87 10
pair_coeff     	4 4 0.080 3.81 10

bond_coeff      1 448.126 1.54
angle_coeff     1 62.14 114
dihedral_coeff 	1 2.007 -4.012 0.271 6.290 0
dihedral_coeff 	2 0.814 -1.792 0.389 3.673 0
improper_coeff	1 40 27.25

timestep       	1

fix	       	ensemble all nve
fix 		thermostat all langevin ${eqmT} ${eqmT} 100.0 39847
fix 		thermostat all langevin 293 ${eqmT} 100.0 39847
fix 		thermostat all langevin 293 293 100.0 39847
fix		compress all deform 1 x scale ${scalefactor} y scale ${scalefactor} z scale ${scalefactor}	# the scalefactor is computed offline based on the final density of phase 1 and target density ## VIA BASH
fix		compress all deform 1 x scale 0.99193803117 y scale ${scalefactor} z scale ${scalefactor}	
fix		compress all deform 1 x scale 0.99193803117 y scale 0.99193803117 z scale ${scalefactor}	
fix		compress all deform 1 x scale 0.99193803117 y scale 0.99193803117 z scale 0.99193803117	
Resetting global fix info from restart file:
  fix style: deform, fix ID: compress
fix		output_pressure all ave/time 10 100 1000 v_pxx v_pyy v_pzz v_pxy v_pxz v_pyz c_thermo_press ave one file outfiles/pressure.tensor.out
fix 		state_variables all ave/time 10 100 1000 c_thermo_temp v_vol v_rho v_etotal v_a v_b v_c ave one file outfiles/state.variables.out
thermo         	1000
thermo_style   	custom step temp vol press density pe etotal
dump           	gphase2 all atom 10000 outfiles/dumpgphase2.atom	# about 10 MB movie will be generated, change the 10000 to something else if smaller size is needed
dump_modify    	gphase2 first yes
dump_modify    	gphase2 scale no
run            	1000000	# this process of compressing to adjust to the final density is performed slowly so as to not "shock" the system
All restart file global fix info was re-assigned
Neighbor list info ...
  update every 1 steps, delay 0 steps, check yes
  max neighbors/atom: 2000, page size: 100000
  master list distance cutoff = 10.3
  ghost atom cutoff = 10.3
  binsize = 5.15, bins = 10 10 10
  1 neighbor lists, perpetual/occasional/extra = 1 0 0
  (1) pair lj/cut, perpetual
      attributes: half, newton on
      pair build: half/bin/newton/tri
      stencil: half/bin/3d/newton/tri
      bin: standard
Per MPI rank memory allocation (min/avg/max) = 8.931 | 9.076 | 9.326 Mbytes
Step Temp Volume Press Density PotEng TotEng 
10000481    290.89925    111007.24    1201.0545   0.79056693   -751.69584    2499.1199 
10001000    292.13074    111005.85     798.3255   0.79057685   -729.37768    2535.1999 
10002000    290.17023    111003.16    1192.1562   0.79059597   -808.76202    2433.9068 
10003000    288.34542    111000.48    849.07904    0.7906151   -759.49942     2462.777 
10004000    286.85407    110997.79    647.58841   0.79063422   -795.04358     2410.567 
10005000    288.38433    110995.11    705.29385   0.79065334   -755.97806    2466.7332 
10006000    296.10913    110992.42    653.31379   0.79067246   -718.54688    2590.4894 
10007000    295.10401    110989.74    711.68722   0.79069159   -771.74678    2526.0573 
10008000    293.03201    110987.05    647.30231   0.79071071   -702.08847    2572.5609 
10009000    297.21874    110984.37    429.24973   0.79072984   -815.44659    2505.9897 
10010000    294.84904    110981.68    19.259753   0.79074897   -691.73567    2603.2192 
10011000    286.16546       110979    852.38824   0.79076809   -766.60519    2431.3101 
10012000    292.38935    110976.32    603.97051   0.79078722   -781.38891    2486.0787 
10013000    300.70631    110973.63    761.31279   0.79080635   -776.03293    2584.3772 
10014000    293.36786    110970.95      437.747   0.79082548   -789.63344     2488.769 
10015000     294.2695    110968.26     279.3379   0.79084461    -813.3119    2475.1665 
10016000    296.28414    110965.58    864.84229   0.79086374   -750.36789    2560.6242 
10017000    289.86341    110962.89    651.87588   0.79088287   -825.67027    2413.5698 
10018000    298.74154    110960.21    951.16873     0.790902    -722.2227     2616.231 
10019000    289.00509    110957.53    -45.66532   0.79092113   -777.31448    2452.3338 
10020000    292.23637    110954.84    517.91892   0.79094026   -735.99716    2529.7609 
10021000    296.02877    110952.16    502.29305   0.79095939   -663.54458    2644.5938 
10022000     288.9003    110949.47    349.03652   0.79097853   -718.43515    2510.0421 
10023000    293.11353    110946.79    117.12906   0.79099766   -733.68971    2541.8706 
10024000    299.70999    110944.11    468.54807    0.7910168   -690.53931    2658.7368 
10025000    293.62472    110941.42    196.20417   0.79103593   -705.45621    2575.8167 
10026000    299.15394    110938.74    491.75385   0.79105507   -722.65088    2620.4114 
10027000     292.6377    110936.06    10.828214    0.7910742   -748.41635    2521.8266 
10028000    293.19953    110933.37    484.32343   0.79109334   -726.18167    2550.3397 
10029000    297.19493    110930.69    127.21704   0.79111248   -761.58389    2559.5864 
10030000    289.13005       110928    334.37481   0.79113162   -642.90541    2588.1394 
10031000    296.67378    110925.32    147.55579   0.79115076   -644.25554    2671.0909 
10032000    290.94122    110922.64    358.04997    0.7911699   -660.76026    2590.5244 
10033000    294.80693    110919.95    700.35844   0.79118904   -756.10946    2538.3747 
10034000    292.00585    110917.27    380.21977   0.79120818   -796.18234    2466.9996 
10035000    290.97926    110914.59    880.78141   0.79122732   -798.13969    2453.5701 
10036000    290.96064     110911.9   -189.76141   0.79124646   -700.18423    2551.3174 
10037000    292.26279    110909.22    521.93967    0.7912656   -633.85499    2632.1983 
10038000    288.78329    110906.54    600.77588   0.79128475   -675.75363    2551.4161 
10039000    290.86096    110903.85    589.50404   0.79130389   -722.03647    2528.3513 
10040000    291.43241    110901.17    429.83577   0.79132304   -728.47189    2528.3018 
10041000    289.94041    110898.49    294.47752   0.79134218   -799.20761     2440.893 
10042000    297.73212    110895.81    383.89104   0.79136133   -675.80366    2651.3697 
10043000    292.14808    110893.12    45.816414   0.79138047   -787.03865    2477.7328 
10044000    292.84777    110890.44    352.33479   0.79139962    -762.9912    2509.5993 
10045000    292.06087    110887.76    138.47153   0.79141877   -763.02139    2500.7755 
10046000    292.85159    110885.07    188.74954   0.79143792   -720.31001    2552.3232 
10047000    298.14028    110882.39    202.14598   0.79145707   -722.79166    2608.9429 
10048000    289.96441    110879.71    361.62595   0.79147622   -698.06917    2542.2996 
10049000    291.05796    110877.03    717.30794   0.79149537   -892.60603    2359.9833 
10050000    287.11302    110874.34   -38.101297   0.79151452   -758.51501    2449.9893 
10051000    295.87153    110871.66    701.70221   0.79153367   -710.02756    2596.3537 
10052000    290.51974    110868.98    449.22791   0.79155282   -653.77019    2592.8045 
10053000    292.16405    110866.29    51.453057   0.79157197   -773.46312    2491.4868 
10054000    284.14982    110863.61   -210.32041   0.79159113    -765.0664    2410.3241 
10055000    291.98398    110860.93   -190.23288   0.79161028   -719.75814    2543.1794 
10056000    286.34424    110858.25    61.986038   0.79162944     -726.368    2473.5451 
10057000    290.11487    110855.56    677.94852   0.79164859   -747.93525     2494.115 
10058000    288.98347    110852.88    837.21132   0.79166775   -720.38513    2509.0216 
10059000    293.79306     110850.2    369.53502    0.7916869   -670.72435    2612.4298 
10060000    291.22305    110847.52   -491.97488   0.79170606   -701.11381    2553.3204 
10061000    296.16002    110844.84   -161.78973   0.79172522   -719.11658    2590.4884 
10062000    289.14623    110842.15   -785.54437   0.79174438   -631.79348    2599.4321 
10063000    292.41995    110839.47   -162.62481   0.79176353   -725.18707    2542.6225 
10064000    292.23237    110836.79   -130.62112   0.79178269   -667.28661    2598.4267 
10065000    292.11397    110834.11    178.74626   0.79180185   -654.26961    2610.1206 
10066000    298.42462    110831.43    520.12477   0.79182101   -721.74777    2613.1643 
10067000    294.58744    110828.74    107.16815   0.79184018   -708.58101    2583.4503 
10068000    296.87213    110826.06    183.72587   0.79185934   -656.68476    2660.8782 
10069000    297.04713    110823.38    504.66116    0.7918785   -676.64299    2642.8756 
10070000      296.578     110820.7    203.24361   0.79189766    -692.5037    2621.7723 
10071000    292.98529    110818.02     -531.884   0.79191683   -712.31801    2561.8093 
10072000    289.82633    110815.33    -44.35316   0.79193599   -630.29255    2608.5332 
10073000    297.27176    110812.65    148.80807   0.79195516   -749.07734    2572.9515 
10074000    286.73215    110809.97    445.11606   0.79197432   -781.64116     2422.607 
10075000    285.92404    110807.29    255.54241   0.79199349   -726.72626    2468.4911 
10076000    293.69291    110804.61    262.45712   0.79201266     -743.467     2538.568 
10077000    295.51637    110801.93   -474.34202   0.79203182   -698.71581    2603.6965 
10078000    289.77109    110799.24    24.480164   0.79205099   -677.11704    2561.0914 
10079000    298.43813    110796.56    856.65731   0.79207016   -701.14324    2633.9198 
10080000    293.03453    110793.88   -578.21575   0.79208933   -761.06932    2513.6083 
10081000    291.39197     110791.2   -449.95316    0.7921085   -723.51119    2532.8106 
10082000    290.54694    110788.52    219.43501   0.79212767   -818.66092    2428.2176 
10083000    290.92686    110785.84    8.9061785   0.79214684   -721.33587    2529.7883 
10084000     294.3694    110783.16    604.39233   0.79216601   -752.55519    2537.0396 
10085000    288.09874    110780.48    334.98145   0.79218519   -765.46069    2454.0591 
10086000    289.22899    110777.79   -401.97341   0.79220436   -729.14314    2503.0072 
10087000    295.62872    110775.11    188.77948   0.79222353   -793.00211    2510.6657 
10088000    285.90074    110772.43     497.1622   0.79224271   -682.00486    2512.9521 
10089000    293.64477    110769.75   -442.62182   0.79226188   -721.31086    2560.1862 
10090000    288.80787    110767.07    202.42612   0.79228106   -809.38051    2418.0639 
10091000    294.19751    110764.39     327.6672   0.79230023   -790.12471    2497.5491 
10092000    289.78508    110761.71   -174.28139   0.79231941   -719.72585    2518.6389 
10093000    289.74738    110759.03    959.25948   0.79233859   -783.89035    2454.0531 
10094000    302.04262    110756.35    19.400342   0.79235777   -797.01681    2578.3267 
10095000    299.55232    110753.67    -1023.473   0.79237694   -718.76153    2628.7527 
10096000    299.79651    110750.99    371.42039   0.79239612     -808.652     2541.591 
10097000    295.50626     110748.3    280.35694    0.7924153   -777.48724     2524.812 
10098000    294.40141    110745.62   -173.38976   0.79243448   -816.80444    2473.1481 
10099000    288.83465    110742.94    194.54366   0.79245367   -806.78099    2420.9627 
10100000    287.09231    110740.26    452.40271   0.79247285   -758.50291      2449.77 
10101000    291.77485    110737.58    227.64739   0.79249203   -766.85164    2493.7489 
10102000    293.69116     110734.9   -237.69943   0.79251121   -663.73814    2618.2773 
10103000    297.27666    110732.22   -332.33525    0.7925304   -759.09382    2562.9897 
10104000     291.2206    110729.54    351.04371   0.79254958   -687.15287    2567.2539 
10105000    289.65795    110726.86   -1246.9913   0.79256877   -729.83987    2507.1042 
10106000    291.66152    110724.18    73.796064   0.79258795   -742.03123    2517.3028 
10107000    293.37531     110721.5   -915.57016   0.79260714   -833.76643    2444.7194 
10108000    290.53453    110718.82   -787.31435   0.79262632   -844.43755    2402.3023 
10109000     293.2762    110716.14   -425.73242   0.79264551   -689.99527     2587.383 
10110000    293.55111    110713.46   -410.46891    0.7926647   -820.61366    2459.8367 
10111000    289.61807    110710.78    125.01404   0.79268389   -816.04991    2420.4485 
10112000    290.99221     110708.1   -55.917512   0.79270308   -751.69524    2500.1593 
10113000    297.04992    110705.42    65.632821   0.79272227    -741.3756    2578.1742 
10114000    288.50457    110702.74   -101.60855   0.79274146   -779.32911    2444.7259 
10115000    292.06432    110700.06   -358.19034   0.79276065   -788.08045    2475.7549 
10116000    295.49128    110697.38   -556.41234   0.79277984    -685.9964    2616.1355 
10117000    292.39816     110694.7    986.65555   0.79279903   -764.00677    2503.5593 
10118000    292.56261    110692.02    -81.74881   0.79281822   -720.92194    2548.4818 
10119000    291.42289    110689.34   -287.68553   0.79283742   -747.99664    2508.6707 
10120000    286.86628    110686.66    556.97961   0.79285661   -663.99094     2541.756 
10121000    295.20481    110683.98    514.02796   0.79287581   -793.57609    2505.3545 
10122000    297.80176     110681.3   -683.69411     0.792895   -817.28974    2510.6619 
10123000    299.89235    110678.62   -60.725249    0.7929142   -811.03358    2540.2805 
10124000    293.49366    110675.94    37.493663   0.79293339   -778.62579    2501.1825 
10125000    296.51286    110673.26    896.87529   0.79295259   -760.84291    2552.7051 
10126000    288.70957    110670.58    427.77902   0.79297179   -817.15723    2409.1887 
10127000    290.76969    110667.91    29.754618   0.79299099   -734.32927    2515.0386 
10128000    289.31598    110665.23    517.67769   0.79301019   -770.00873    2463.1138 
10129000    292.86924    110662.55      478.439   0.79302939   -728.71956    2544.1109 
10130000    295.84958    110659.87   -298.14138   0.79304859   -709.75993     2596.376 
10131000    292.06534    110657.19   -1452.4227   0.79306779    -791.3819    2472.4649 
10132000    286.01372    110654.51    58.649663   0.79308699   -735.12496    2461.0947 
10133000    292.35183    110651.83    480.64468   0.79310619   -710.16018    2556.8882 
10134000    291.46441    110649.15   -421.33089    0.7931254   -775.22271    2481.9087 
10135000    292.06452    110646.47   -618.41658    0.7931446    -832.0325    2431.8051 
10136000     304.7092    110643.79     156.2503    0.7931638   -739.50957     2665.633 
10137000    294.13248    110641.11   -87.667165   0.79318301   -617.41442    2669.5327 
10138000     298.9693    110638.44     179.9978   0.79320221   -774.96164    2566.0373 
10139000    287.95116    110635.76   -103.40738   0.79322142   -726.59095    2491.2796 
10140000    291.93117    110633.08    13.708719   0.79324063   -725.29809    2537.0493 
10141000    292.98746     110630.4   -433.64682   0.79325983   -715.12027    2559.0313 
10142000    294.49338    110627.72   -450.54874   0.79327904    -701.7772    2589.2031 
10143000    288.02523    110625.04   -165.28668   0.79329825   -666.57092    2552.1274 
10144000    298.78119    110622.36    101.90337   0.79331746    -619.0369    2719.8599 
10145000    294.63695    110619.68    284.46309   0.79333667   -651.66937    2640.9153 
10146000    297.12287    110617.01   -357.34603   0.79335588   -715.71715    2604.6479 
10147000    290.68202    110614.33    91.664108   0.79337509   -734.98095    2513.4072 
10148000    300.61506    110611.65   -433.82792    0.7933943   -721.77312    2637.6173 
10149000    293.65635    110608.97    603.20337   0.79341351   -680.32967    2601.2967 
10150000     291.8932    110606.29   -762.10867   0.79343272   -736.74335    2525.1797 
10151000     290.4724    110603.61    114.45869   0.79345194   -673.36811    2572.6774 
10152000    293.45313    110600.94   -277.60956   0.79347115   -723.58915    2555.7663 
10153000    291.55406    110598.26   -496.96488   0.79349037   -839.63797    2418.4952 
10154000    291.92869    110595.58    411.21281   0.79350958   -724.48917    2537.8305 
10155000    298.92056     110592.9    141.14655    0.7935288   -740.21592    2600.2384 
10156000    291.51244    110590.22   -343.96226   0.79354801   -725.36872    2532.2994 
10157000    290.95311    110587.54    6.1931473   0.79356723   -716.98162     2534.436 
10158000    288.46532    110584.87      128.354   0.79358645   -763.88098    2459.7353 
10159000    289.93594    110582.19   -512.54736   0.79360567   -723.29474    2516.7559 
10160000    295.06701    110579.51   -337.49976   0.79362489   -776.14141    2521.2492 
10161000     292.8866    110576.83    732.23901   0.79364411   -737.06304    2535.9614 
10162000    290.33139    110574.16   -121.09206   0.79366333   -722.29646    2522.1734 
10163000    291.84679    110571.48    -444.6387   0.79368255   -708.40027    2553.0043 
10164000    298.69072     110568.8    -225.8535   0.79370177   -750.10859    2587.7772 
10165000    293.55293    110566.12    215.07066   0.79372099   -728.16668     2552.304 
10166000    296.47406    110563.44   -546.91247   0.79374021   -777.26376    2535.8508 
10167000    292.07965    110560.77   -8.9961588   0.79375944   -733.74522    2530.2614 
10168000    289.70195    110558.09     289.8111   0.79377866   -679.94905    2557.4867 
10169000    289.35164    110555.41    34.307185   0.79379788   -764.45532    2469.0657 
10170000    294.14694    110552.73    655.80505   0.79381711   -753.86586    2533.2429 
10171000    296.10013    110550.06    448.19614   0.79383634   -660.77718    2648.1587 
10172000    289.19977    110547.38    140.18878   0.79385556   -780.19562    2451.6283 
10173000    291.38813     110544.7   -344.76982   0.79387479   -718.78941    2537.4895 
10174000    298.78132    110542.02   -880.43678   0.79389402   -793.92907    2544.9692 
10175000    288.09096    110539.35    80.719773   0.79391324    -814.7903    2404.6425 
10176000    294.47956    110536.67      362.615   0.79393247   -814.59336    2476.2325 
10177000    291.32406    110533.99    219.85766    0.7939517   -702.26417    2553.2988 
10178000    292.94824    110531.32   -340.17633   0.79397093   -718.20829     2555.505 
10179000    292.65104    110528.64    -133.0955   0.79399016   -752.31713    2518.0749 
10180000    296.75562    110525.96    121.06926    0.7940094   -722.78237    2593.4786 
10181000    288.28263    110523.28    -6.611177   0.79402863   -799.69881     2421.876 
10182000    291.51236    110520.61    220.30952   0.79404786   -757.68643    2499.9808 
10183000    290.17252    110517.93   -228.32443   0.79406709   -742.62692    2500.0675 
10184000    284.91779    110515.25   -1049.3175   0.79408633   -710.53229    2473.4402 
10185000      293.697    110512.58   -52.701025   0.79410556   -785.53002    2496.5507 
10186000    291.23535     110509.9   -49.572837    0.7941248   -729.09731    2525.4743 
10187000    292.05386    110507.22    26.765226   0.79414403   -717.30398    2546.4145 
10188000    293.59198    110504.55   -8.9163347   0.79416327   -734.36672    2546.5403 
10189000    294.75166    110501.87    497.07983   0.79418251   -737.84866    2556.0179 
10190000    290.28833    110499.19    69.901606   0.79420174   -738.34095    2505.6477 
10191000    293.61105    110496.52   -467.48545   0.79422098   -817.59173    2463.5284 
10192000    296.04151    110493.84   -596.23456   0.79424022   -745.39815    2562.8825 
10193000    293.09331    110491.16   -1086.6776   0.79425946   -662.46693    2612.8674 
10194000    293.70425    110488.49   -866.89952    0.7942787   -794.71078     2487.451 
10195000     285.7455    110485.81   -1133.8292   0.79429794   -698.21128     2495.011 
10196000    293.13036    110483.13   -592.84742   0.79431718   -736.40104    2539.3474 
10197000    296.59011    110480.46    32.514156   0.79433642   -759.30674    2555.1046 
10198000    295.36629    110477.78   -920.52423   0.79435567   -771.29908     2529.436 
10199000    294.30777    110475.11    87.782745   0.79437491   -753.61426    2535.2918 
10200000    297.94044    110472.43   -43.852083   0.79439415   -794.11366    2535.3877 
10201000    297.01262    110469.75    254.92866    0.7944134   -694.78797     2624.345 
10202000    299.02267    110467.08    398.48191   0.79443264   -727.37871    2614.2167 
10203000    297.02643     110464.4   -518.25973   0.79445189   -748.61413    2570.6731 
10204000    289.81799    110461.72   -4.8850509   0.79447113   -739.04483    2499.6877 
10205000    302.75149    110459.05    79.086552   0.79449038   -737.97619    2645.2889 
10206000    291.38457    110456.37    323.34853   0.79450963   -780.75887    2475.4803 
10207000    290.54729     110453.7    -1070.046   0.79452888   -693.15486    2553.7277 
10208000    292.82406    110451.02   -656.08809   0.79454813   -764.16678    2508.1587 
10209000    298.26731    110448.35   -339.51509   0.79456738   -736.01742    2597.1367 
10210000    292.80675    110445.67   -111.29511   0.79458663   -741.91756    2530.2145 
10211000     284.8095    110442.99   -394.76014   0.79460588   -822.18098    2360.5814 
10212000    299.50674    110440.32   -590.99113   0.79462513   -791.79445    2555.2105 
10213000    295.03719    110437.64    65.852727   0.79464438   -790.03752    2507.0198 
10214000    284.34651    110434.97   -68.798537   0.79466363   -738.84632    2438.7421 
10215000    292.10505    110432.29    312.66285   0.79468288   -773.65873    2490.6319 
10216000    289.15295    110429.62   -493.59503   0.79470214   -715.59411    2515.7066 
10217000    289.25856    110426.94   -558.28482   0.79472139   -686.86478    2545.6161 
10218000    288.51249    110424.26   -16.800645   0.79474065   -830.50352    2393.6399 
10219000    290.17378    110421.59   -19.989978    0.7947599   -672.25278    2570.4557 
10220000    294.34117    110418.91   -255.55402   0.79477916   -748.56676    2540.7126 
10221000    291.27647    110416.24   -890.67387   0.79479842     -758.511    2496.5201 
10222000    287.14505    110413.56   -102.83301   0.79481767   -693.13608    2515.7261 
10223000    293.50195    110410.89    148.84083   0.79483693   -777.87199     2502.029 
10224000    298.42517    110408.21   -60.592338   0.79485619   -666.71187    2668.2064 
10225000    299.36684    110405.54    553.68227   0.79487545   -741.00761    2604.4338 
10226000    290.51159    110402.86    94.872142   0.79489471   -728.91174    2517.5718 
10227000    292.39998    110400.19   -505.40307   0.79491397   -814.73052    2452.8559 
10228000    293.11352    110397.51   -174.50269   0.79493323   -771.06396    2504.4963 
10229000    290.27079    110394.84   -178.30197   0.79495249    -759.1965    2484.5961 
10230000    293.19381    110392.16   -30.114169   0.79497176    -755.6448    2520.8127 
10231000    294.44759    110389.49   -216.55307   0.79499102   -772.05929    2518.4093 
10232000    300.89427    110386.81   -24.088508   0.79501028    -752.7928    2609.7178 
10233000    291.75286    110384.14    -291.4719   0.79502955   -738.34968    2522.0051 
10234000    293.36572    110381.46   -741.09582   0.79504881   -789.04622    2489.3324 
10235000     292.0952    110378.79    998.36748   0.79506808    -702.7812    2561.3993 
10236000    297.45897    110376.11     -492.465   0.79508734   -748.59007    2575.5309 
10237000    293.00308    110373.44   -615.89681   0.79510661   -789.47042    2484.8556 
10238000    295.06596    110370.77   -114.63001   0.79512588   -815.62142    2481.7575 
10239000    285.46914    110368.09   -539.33973   0.79514515   -748.76992     2441.364 
10240000    292.76207    110365.42    276.60624   0.79516441   -674.88143    2596.7514 
10241000    291.12169    110362.74   -673.12277   0.79518368   -791.38889    2461.9125 
10242000    291.42188    110360.07    -1208.803   0.79520295   -730.48578    2526.1702 
10243000    291.32393    110357.39     65.47561   0.79522222   -789.29767    2466.2638 
10244000    292.75898    110354.72    921.19692    0.7952415   -825.38209    2446.2162 
10245000    291.96155    110352.04   -890.94614   0.79526077   -786.74901    2475.9379 
10246000    285.69987    110349.37    197.75621   0.79528004   -724.38684    2468.3255 
10247000     294.9921     110346.7   -744.40925   0.79529931   -686.99403    2609.5595 
10248000    291.05954    110344.02  -0.35195854   0.79531859   -779.75048    2472.8564 
10249000    294.38408    110341.35   -12.628914   0.79533786   -859.26454    2430.4943 
10250000    298.82068    110338.67    166.81062   0.79535714   -707.82788    2631.5102 
10251000    293.49205       110336    537.50389   0.79537641   -704.10112    2575.6892 
10252000    291.81521    110333.33   -50.632759   0.79539569   -777.95311    2483.0985 
10253000    283.41121    110330.65    -28.95759   0.79541496   -750.87676    2416.2597 
10254000    289.16501    110327.98    521.13699   0.79543424   -731.92893    2499.5065 
10255000    291.92926     110325.3   -774.12228   0.79545352    -715.0583    2547.2678 
10256000    296.96634    110322.63   -171.84826    0.7954728   -735.27111    2583.3446 
10257000    291.66239    110319.96    206.83064   0.79549208   -782.54936    2476.7945 
10258000    291.39197    110317.28    751.03719   0.79551136   -667.80618    2588.5157 
10259000    297.73091    110314.61      364.818   0.79553064   -677.68522    2649.4747 
10260000     295.5115    110311.94    517.05747   0.79554992   -698.15986    2604.1979 
10261000    296.10157    110309.26    435.54387    0.7955692   -766.52052    2542.4313 
10262000    292.99001    110306.59   -290.28955   0.79558848   -730.86541    2543.3146 
10263000    289.38074    110303.92   -122.81286   0.79560777   -693.53006    2540.3162 
10264000    295.03264    110301.24   -212.73147   0.79562705   -833.27667    2463.7298 
10265000    293.32766    110298.57    810.90824   0.79564633   -717.38006    2560.5732 
10266000    289.05358     110295.9    185.05022   0.79566562   -793.09909    2437.0911 
10267000    299.99287    110293.22   -369.74756    0.7956849   -739.36213    2613.0752 
10268000    292.00602    110290.55   -202.12693   0.79570419   -809.88534    2453.2986 
10269000    289.90911    110287.88    356.83576   0.79572348   -761.76591    2477.9849 
10270000    296.55826     110285.2   -484.77894   0.79574276    -673.3274     2640.728 
10271000     292.1291    110282.53   -343.59055   0.79576205   -772.95365    2491.6057 
10272000    295.89787    110279.86    760.66472   0.79578134   -728.92683    2577.7487 
10273000    294.76446    110277.18   -401.35448   0.79580063   -741.33909    2552.6705 
10274000    298.16622    110274.51   -560.82095   0.79581992   -811.21652    2520.8079 
10275000     291.4781    110271.84   -51.931164   0.79583921   -720.43897    2536.8454 
10276000    293.88192    110269.16     -525.284    0.7958585    -756.7955    2527.3516 
10277000    294.43543    110266.49    1217.3503   0.79587779    -640.9885    2649.3441 
10278000    286.40148    110263.82   -207.75376   0.79589709   -734.88252    2465.6703 
10279000    297.90492    110261.15    407.70147   0.79591638   -764.89072    2564.2138 
10280000    292.26241    110258.47    372.05196   0.79593567   -690.68708     2575.362 
10281000    293.77847     110255.8   -343.05894   0.79595497   -842.22817    2440.7629 
10282000    294.56532    110253.13    -858.0157   0.79597426   -794.69267    2497.0915 
10283000    294.20496    110250.45    98.970954   0.79599356      -756.98    2530.7772 
10284000    292.88575    110247.78    14.450801   0.79601285    -693.6948    2579.3201 
10285000    289.35726    110245.11   -218.79976   0.79603215   -773.48551    2460.0983 
10286000    291.55193    110242.44     82.86439   0.79605145   -727.11374    2530.9957 
10287000    293.47261    110239.76   -745.01727   0.79607074   -732.80696    2546.7661 
10288000    288.76278    110237.09    448.80494   0.79609004    -699.0549    2527.8856 
10289000    297.58526    110234.42    488.19677   0.79610934   -748.10101    2577.4312 
10290000    289.35921    110231.75   -529.24806   0.79612864   -736.39694    2497.2087 
10291000    291.49931    110229.08   -84.513366   0.79614794   -789.06224    2468.4591 
10292000     294.6808     110226.4   -728.49031   0.79616724   -786.77784    2506.2969 
10293000    295.00325    110223.73   -259.10967   0.79618655   -733.14343    2563.5347 
10294000    297.21469    110221.06     -386.088   0.79620585   -828.06249    2493.3285 
10295000    293.13423    110218.39    282.75312   0.79622515    -731.6647     2544.127 
10296000    287.97247    110215.71    246.52433   0.79624445   -763.80171     2454.307 
10297000    294.33106    110213.04      -166.35   0.79626376   -780.66488    2508.5015 
10298000     291.4139    110210.37     108.7269   0.79628306   -793.12002    2463.4469 
10299000     288.2023     110207.7   -315.11818   0.79630237   -685.45387    2535.2232 
10300000     289.4742    110205.03    210.81312   0.79632167   -703.35596    2531.5347 
10301000    289.81917    110202.36    204.03399   0.79634098   -718.48391    2520.2618 
10302000    288.88378    110199.68   -668.84767   0.79636029   -678.74936    2549.5433 
10303000     297.3836    110197.01   -381.20726    0.7963796   -773.90528    2549.3734 
10304000    302.45421    110194.34    251.96854   0.79639891   -685.56605     2694.377 
10305000    295.45389    110191.67   -83.599793   0.79641821   -703.11434    2598.5997 
10306000    297.02195       110189   -535.44964   0.79643752   -822.34443    2496.8928 
10307000    291.91904    110186.33    688.53566   0.79645683   -740.41115    2521.8007 
10308000    297.55742    110183.65   -517.28569   0.79647615   -754.20884    2571.0122 
10309000    293.40831    110180.98   -663.66318   0.79649546   -771.25828    2507.5963 
10310000    300.82678    110178.31   -267.08747   0.79651477   -752.20244     2609.554 
10311000    293.37882    110175.64   -195.23454   0.79653408   -729.08368    2549.4413 
10312000    289.18653    110172.97   -280.26611    0.7965534   -694.53271    2537.1432 
10313000    290.27091     110170.3    925.45991   0.79657271   -731.69584    2512.0981 
10314000    290.39277    110167.63    143.44505   0.79659203   -769.73029    2475.4254 
10315000     293.6129    110164.95     961.5505   0.79661134   -692.96739    2588.1735 
10316000     294.6395    110162.28   -380.42083   0.79663066   -793.24774    2499.3655 
10317000    291.23853    110159.61   -454.02959   0.79664997   -734.35206    2520.2551 
10318000    287.22155    110156.94   -429.66055   0.79666929   -550.14768    2659.5695 
10319000    294.34873    110154.27    185.57078   0.79668861   -800.76152    2488.6023 
10320000    297.63541     110151.6   -269.73485   0.79670793   -732.55598    2593.5367 
10321000    296.16048    110148.93     896.5823   0.79672725   -755.84098    2553.7692 
10322000     292.9631    110146.26    265.42113   0.79674657   -749.93276    2523.9465 
10323000    292.14649    110143.59    933.91478   0.79676589   -718.44467     2546.309 
10324000    301.20529    110140.91   -16.444344   0.79678521   -736.80738    2629.1789 
10325000    291.03116    110138.24    99.265833   0.79680453   -761.16472    2491.1251 
10326000     291.9677    110135.57    -679.3395   0.79682385    -762.5062    2500.2494 
10327000    298.75957     110132.9    132.46633   0.79684317   -780.15303    2558.5021 
10328000    294.67292    110130.23   -568.58775    0.7968625   -816.66848    2476.3181 
10329000     292.5481    110127.56   -471.23697   0.79688182   -814.54598    2454.6957 
10330000    284.99692    110124.89   -111.46369   0.79690115   -749.92068    2434.9361 
10331000    298.84289    110122.22    53.589805   0.79692047   -812.62212    2526.9642 
10332000    291.37139    110119.55    501.53154    0.7969398    -797.9964    2458.0955 
10333000    288.71225    110116.88   -163.02863   0.79695913   -725.54877    2500.8271 
10334000    295.12653    110114.21   -649.85611   0.79697845   -807.80728    2490.2485 
10335000    297.26601    110111.54   -311.33154   0.79699778   -783.07255     2538.892 
10336000    294.02268    110108.87   -117.28576   0.79701711   -774.19941    2511.5207 
10337000    294.03752     110106.2   -38.582642   0.79703644   -750.80763    2535.0784 
10338000    289.82453    110103.53    207.08743   0.79705577   -655.90542    2582.9002 
10339000    298.88112    110100.86   -262.71796    0.7970751   -816.51932    2523.4942 
10340000    288.08737    110098.19    400.24098   0.79709443   -745.48702    2473.9058 
10341000    297.03274    110095.52   -531.01197   0.79711376   -821.96135    2497.3964 
10342000    297.24755    110092.85   -101.88819   0.79713309    -835.2746    2486.4837 
10343000     302.8951    110090.18    -875.0689   0.79715243    -835.2469     2549.623 
10344000    297.37438    110087.51    230.66963   0.79717176   -722.55429    2600.6213 
10345000    291.07077    110084.84   -187.59987   0.79719109   -750.80293    2501.9295 
10346000    298.88956    110082.17    677.16171   0.79721043   -650.87943    2689.2284 
10347000    288.52767     110079.5   -51.271423   0.79722976     -776.005    2448.3082 
10348000     296.6756    110076.83   -569.02138    0.7972491   -786.72211    2528.6445 
10349000    295.58132    110074.16   -26.060808   0.79726844    -776.3394    2526.7987 
10350000    290.50835    110071.49    252.67831   0.79728777   -722.02863    2524.4187 
10351000    288.65656    110068.82   -610.55414   0.79730711   -749.61261    2476.1408 
10352000    288.86139    110066.15   -338.73106   0.79732645   -639.82112    2588.2214 
10353000    295.90748    110063.48   -284.10408   0.79734579    -781.8145    2524.9684 
10354000    289.30561    110060.81   -384.22055   0.79736513   -693.60534    2539.4013 
10355000    294.80039    110058.14   -288.90571   0.79738447   -799.44879    2494.9623 
10356000    294.93058    110055.47   -187.09202   0.79740381   -745.72342    2550.1426 
10357000    302.31502     110052.8    355.78028   0.79742315   -775.22117    2603.1664 
10358000    289.68024    110050.13    80.464038    0.7974425   -796.74164    2440.4515 
10359000    289.74778    110047.46    311.91438   0.79746184   -740.05395     2497.894 
10360000    294.53879    110044.79    1211.9589   0.79748118   -651.06733    2640.4204 
10361000    292.52453    110042.12    70.695783   0.79750053   -809.92082    2459.0575 
10362000    294.50709    110039.45    148.10838   0.79751987   -817.54923    2473.5842 
10363000    294.41674    110036.79    155.09411   0.79753922    -828.6953    2461.4285 
10364000    292.65642    110034.12     700.2616   0.79755856   -838.82643    2431.6257 
10365000    293.65005    110031.45    372.30591   0.79757791   -732.26239    2549.2937 
10366000    298.61243    110028.78    765.57033   0.79759726    -763.5634    2573.4474 
10367000    297.74568    110026.11     192.1499    0.7976166    -714.4194    2612.9055 
10368000    289.52161    110023.44   -576.90863   0.79763595   -791.67779    2443.7426 
10369000    291.31984    110020.77    184.27641    0.7976553   -696.76222    2558.7535 
10370000    292.40881     110018.1    391.91652   0.79767465   -691.49441    2576.1907 
10371000    291.26813    110015.43   -285.46525     0.797694   -805.06867    2449.8693 
10372000    298.57251    110012.77   -330.57114   0.79771335   -754.42158    2582.1432 
10373000    289.86973     110010.1   -292.27614   0.79773271   -694.87169     2544.439 
10374000    294.58713    110007.43   -415.39684   0.79775206   -687.60568    2604.4222 
10375000    289.56092    110004.76   -439.34912   0.79777141   -748.36029    2487.4994 
10376000    287.43851    110002.09    478.17359   0.79779076   -730.72155    2481.4201 
10377000    293.98882    109999.42   -120.06133   0.79781012   -794.60681     2490.735 
10378000     287.4219    109996.75   -221.66991   0.79782947   -794.13535    2417.8207 
10379000    297.95858    109994.08   -679.15993   0.79784883   -716.46071    2613.2434 
10380000    292.34743    109991.42   -110.31117   0.79786818   -797.44111    2469.5581 
10381000    296.90808    109988.75   -262.87953   0.79788754   -775.34967     2542.615 
10382000    294.67297    109986.08    92.298623    0.7979069   -765.74789    2527.2393 
10383000    288.35849    109983.41   -92.311824   0.79792626   -789.33075    2433.0918 
10384000    297.13616    109980.74   -343.32452   0.79794562   -731.22982    2589.2837 
10385000    286.20368    109978.07   -299.39164   0.79796497   -733.73714    2464.6052 
10386000    292.87576    109975.41    152.24196   0.79798433   -771.45002    2501.4533 
10387000    289.25055    109972.74    -5.708384   0.79800369   -765.83197    2466.5594 
10388000    289.20693    109970.07   -567.51466   0.79802306   -782.98691     2448.917 
10389000    286.33265     109967.4   -1068.7953   0.79804242   -717.56776    2482.2159 
10390000    291.58859    109964.73   -410.34714   0.79806178   -773.37493    2485.1442 
10391000    290.97199    109962.07    85.817734   0.79808114   -724.62448    2527.0041 
10392000     288.5288     109959.4     -401.714   0.79810051   -743.56433    2480.7615 
10393000    294.00337    109956.73     297.7846   0.79811987   -832.30152    2453.2028 
10394000    299.13461    109954.06   -219.27092   0.79813924   -684.94602    2657.9003 
10395000    299.34386     109951.4   -475.88682    0.7981586   -834.44563     2510.739 
10396000    289.95233    109948.73   -402.85357   0.79817797   -758.06832    2482.1655 
10397000    294.88862    109946.06   -342.05115   0.79819733   -750.34116     2545.056 
10398000    289.72973    109943.39   -600.47856    0.7982167   -842.27623      2395.47 
10399000    293.48309    109940.72   -561.30034   0.79823607   -794.56449    2485.1258 
10400000    295.80965    109938.06     304.4043   0.79825544   -773.05833    2532.6313 
10401000    293.23921    109935.39     36.36148   0.79827481   -723.02476      2553.94 
10402000    296.55208    109932.72   -188.56752   0.79829418   -730.93022    2583.0561 
10403000     287.9954    109930.05   -936.51938   0.79831355   -771.29135    2447.0736 
10404000    289.44719    109927.39   -194.04033   0.79833292   -759.15908    2475.4297 
10405000    295.97739    109924.72   -524.89201   0.79835229   -744.14581    2563.4183 
10406000    290.45446    109922.05    683.66794   0.79837166   -832.72027    2413.1249 
10407000    282.84985    109919.39   -240.09006   0.79839104   -833.77119     2327.092 
10408000    298.05514    109916.72    120.91857   0.79841041   -742.34419     2588.439 
10409000    293.64991    109914.05   -261.47011   0.79842978   -772.53687    2509.0176 
10410000    301.12097    109911.38   -214.20352   0.79844916   -798.31784    2566.7261 
10411000    297.39132    109908.72    42.463741   0.79846853   -700.71453    2622.6504 
10412000     293.0492    109906.05     404.0565   0.79848791   -684.11985    2590.7217 
10413000    294.60359    109903.38    318.76268   0.79850729   -829.73798    2462.4738 
10414000    287.23354    109900.72   -364.88019   0.79852666   -754.17285    2455.6784 
10415000    293.65828    109898.05    167.46936   0.79854604   -746.55476    2535.0932 
10416000    290.96798    109895.38    -360.9352   0.79856542   -837.00975     2414.574 
10417000    294.05922    109892.71    -667.3332    0.7985848   -780.62845    2505.5001 
10418000    294.20444    109890.05   -31.671147   0.79860418   -787.84352    2499.9078 
10419000    296.61472    109887.38    20.247739   0.79862356   -731.10049    2583.5859 
10420000    291.66271    109884.71   -871.13641   0.79864294   -682.08755    2577.2598 
10421000    291.14977    109882.05   -625.27335   0.79866232    -686.0576    2567.5577 
10422000    298.44507    109879.38   -27.076791   0.79868171   -777.24939    2557.8913 
10423000    302.85106    109876.71    142.56429   0.79870109   -668.80133    2715.5765 
10424000    293.65053    109874.05   -240.90885   0.79872047   -780.62191    2500.9394 
10425000    294.83462    109871.38   -268.32796   0.79873986    -765.9711    2528.8225 
10426000    293.20345    109868.72     209.1393   0.79875924    -790.1482     2486.417 
10427000    297.70212    109866.05    499.60333   0.79877863   -803.57092    2523.2672 
10428000    300.36923    109863.38    142.76638   0.79879801   -710.78992    2645.8533 
10429000    292.94004    109860.72    331.38201    0.7988174   -757.39616    2516.2255 
10430000    294.96144    109858.05    6.2982776   0.79883679   -835.90666    2460.3042 
10431000    298.04513    109855.38    273.72815   0.79885618   -707.90647    2622.7648 
10432000    291.24507    109852.72   -142.65536   0.79887556   -718.97831    2535.7019 
10433000    292.59781    109850.05     77.78514   0.79889495    -805.8887    2463.9085 
10434000    288.33906    109847.39    79.937136   0.79891434   -804.78573    2417.4196 
10435000     293.0754    109844.72   -519.24742   0.79893373   -695.70268    2579.4316 
10436000    299.15934    109842.05     128.9924   0.79895312    -741.0514    2602.0713 
10437000    293.40779    109839.39    -34.34622   0.79897252   -785.50463    2493.3441 
10438000    287.66823    109836.72   -511.28663   0.79899191   -815.61818    2399.0907 
10439000    297.80222    109834.06   -124.89046    0.7990113   -699.16451    2628.7923 
10440000    292.21078    109831.39    171.05704    0.7990307    -671.1506    2594.3215 
10441000    295.46943    109828.72   -389.22968   0.79905009   -834.11723    2467.7705 
10442000    292.93909    109826.06   -157.78598   0.79906949   -859.97075    2413.6402 
10443000    296.85563    109823.39    61.457161   0.79908888   -650.85067    2666.5279 
10444000    301.47948    109820.73   -306.38823   0.79910828   -773.28781    2595.7625 
10445000    294.53261    109818.06   -921.61822   0.79912767   -690.61047    2600.8082 
10446000    290.82393     109815.4    428.32764   0.79914707   -769.59544    2480.3785 
10447000    288.74013    109812.73     597.4646   0.79916647   -641.60364    2585.0837 
10448000    294.94576    109810.06   -166.39754   0.79918587    -751.0841    2544.9515 
10449000    293.19254     109807.4   -597.52128   0.79920527   -775.06123    2501.3821 
10450000    285.63989    109804.73   -1078.4045   0.79922467   -829.57544    2362.4666 
10451000    299.77985    109802.07   -929.01937   0.79924407   -829.62166    2520.4352 
10452000    293.05054     109799.4    -732.3018   0.79926347   -717.42188    2557.4345 
10453000    290.00929    109796.74    36.573471   0.79928287   -689.39819    2551.4722 
10454000     290.3445    109794.07   -462.77198   0.79930227   -804.77267    2439.8436 
10455000    286.90955    109791.41    189.19727   0.79932168   -606.27143    2599.9591 
10456000    290.61426    109788.74    986.41303   0.79934108   -684.81146    2562.8195 
10457000    279.98591    109786.08    848.89148   0.79936048   -763.10244     2365.756 
10458000    290.81857    109783.41   -502.03332   0.79937989   -734.49763    2515.4164 
10459000    294.69187    109780.75    595.80762    0.7993993   -720.29783    2572.9006 
10460000    298.17274    109778.08    132.05648    0.7994187   -788.84366    2543.2536 
10461000    291.30233    109775.42   -738.55943   0.79943811   -786.47149    2468.8486 
10462000    290.22457    109772.75   -920.61566   0.79945752   -748.36851    2494.9076 
10463000    297.90573    109770.09     209.1193   0.79947692   -841.07579    2488.0377 
10464000    294.73666    109767.42    5.5828888   0.79949633   -768.50852    2525.1904 
10465000    295.81719    109764.76   -20.256339   0.79951574   -683.09195     2622.682 
10466000    293.87146    109762.09   -68.706454   0.79953515   -734.55724    2549.4731 
10467000    287.23349    109759.43   -765.13546   0.79955456   -704.14117    2505.7094 
10468000    296.06286    109756.76   -609.50325   0.79957397   -809.28709    2499.2322 
10469000    291.99661     109754.1    372.63181   0.79959339   -753.65657    2509.4222 
10470000    293.83318    109751.43   -172.60498    0.7996128   -706.23024    2577.3723 
10471000    288.21532    109748.77    -649.9768   0.79963221   -819.26752    2401.5551 
10472000     299.4522    109746.11   -870.86493   0.79965163   -713.88777    2632.5077 
10473000    289.40362    109743.44    276.58421   0.79967104   -791.85204    2442.2499 
10474000    300.34084    109740.78   -225.70249   0.79969045   -825.50014    2530.8258 
10475000    290.49353    109738.11   -548.61736   0.79970987   -759.69474    2486.5869 
10476000    296.82263    109735.45    249.11283   0.79972929   -742.92354    2574.0862 
10477000    295.46348    109732.78    -215.2892    0.7997487   -747.93617     2553.885 
10478000      297.261    109730.12     39.09113   0.79976812   -759.47954    2562.4291 
10479000    288.97625    109727.46   -525.87433   0.79978754   -724.49671    2504.8293 
10480000    296.60925    109724.79   -181.41067   0.79980696   -764.12612    2550.4992 
10481000    287.25777    109722.13   -670.17885   0.79982638   -800.31977    2409.8022 
10482000     295.9913    109719.46   -1233.9801    0.7998458   -770.41307    2537.3065 
10483000      288.101     109716.8   -437.59559   0.79986522   -731.55284    2487.9922 
10484000    286.90325    109714.14    556.49085   0.79988464   -795.37295    2410.7872 
10485000    293.99523    109711.47   -513.34839   0.79990406   -826.38901    2459.0244 
10486000    296.06514    109708.81   -200.35063   0.79992348   -789.89357    2518.6512 
10487000    298.60775    109706.14   -533.39498   0.79994291   -803.56246    2533.3961 
10488000    292.97857    109703.48   -42.858696   0.79996233   -735.29981    2538.7524 
10489000    287.78124    109700.82   -100.36202   0.79998176   -744.89536    2471.0763 
10490000     293.2809    109698.15   -600.77719   0.80000118   -761.26987    2516.1609 
10491000    292.27141    109695.49    674.30549   0.80002061    -756.8433    2509.3063 
10492000    295.07738    109692.83   -1168.1218   0.80004003   -827.37462    2470.1319 
10493000    292.90265    109690.16    117.02469   0.80005946   -758.17321    2515.0305 
10494000    292.06569     109687.5   -1369.6913   0.80007889    -748.2976    2515.5531 
10495000    298.24282    109684.83   -785.11504   0.80009832   -792.35525    2540.5252 
10496000     298.8046    109682.17    760.90374   0.80011774   -787.09979    2552.0586 
10497000    295.80664    109679.51   -481.43989   0.80013717   -717.88016    2587.7758 
10498000     292.2894    109676.84   -697.52098    0.8001566   -678.76292    2587.5878 
10499000    294.24663    109674.18   -792.16154   0.80017604   -787.64925    2500.5736 
10500000     292.5802    109671.52    244.62709   0.80019547    -731.4403    2538.1601 
10501000    289.65871    109668.86      515.401    0.8002149    -773.7616     2463.191 
10502000    291.55833    109666.19   -663.42679   0.80023433   -760.26822    2497.9127 
10503000    288.83669    109663.53    1037.8706   0.80025376   -763.07688    2464.6895 
10504000    298.43839    109660.87    -336.1563    0.8002732   -675.71567    2659.3504 
10505000    292.35242     109658.2   -292.52606   0.80029263   -747.87276    2519.1821 
10506000    292.55393    109655.54    42.038919   0.80031207   -719.84883    2549.4579 
10507000    293.03529    109652.88    -31.74649    0.8003315   -794.52834    2480.1577 
10508000    292.67345    109650.21    448.17944   0.80035094   -727.12483    2543.5177 
10509000    300.32403    109647.55   -375.95502   0.80037038   -747.02123    2609.1169 
10510000    292.49093    109644.89    271.75564   0.80038982   -734.74906    2533.8537 
10511000    296.26937    109642.23   -443.59057   0.80040925   -711.45387    2599.3732 
10512000    292.80167    109639.56    35.864179   0.80042869   -750.81513    2521.2602 
10513000    291.71633     109636.9   -122.05503   0.80044813   -754.69825    2505.2483 
10514000    292.65927    109634.24   -23.833383   0.80046757   -764.58575    2505.8983 
10515000    293.20485    109631.57   -640.30271   0.80048701   -796.41149    2480.1693 
10516000    295.32074    109628.91    4.2538239   0.80050645   -772.85375    2527.3723 
10517000    296.00506    109626.25   -955.08298    0.8005259   -716.55457    2591.3188 
10518000    296.29559    109623.59   -394.11896   0.80054534   -795.00429    2516.1157 
10519000    289.42534    109620.92    -139.6816   0.80056478   -763.51196    2470.8327 
10520000    293.64611    109618.26   -507.65179   0.80058423    -754.8691    2526.6429 
10521000    288.37711     109615.6   -322.80253   0.80060367   -810.86606    2411.7646 
10522000    292.04205    109612.94   -130.69775   0.80062312   -805.83037    2457.7562 
10523000    295.13904    109610.28   -809.96517   0.80064256   -793.70736    2504.4882 
10524000    290.15844    109607.61    97.433531   0.80066201   -765.01321    2477.5238 
10525000    291.26439    109604.95    -48.70679   0.80068146   -770.73708     2484.159 
10526000    295.64913    109602.29   -59.013608    0.8007009   -875.23752    2428.6583 
10527000    293.98253    109599.63   -170.06964   0.80072035   -665.03054     2620.241 
10528000    293.82926    109596.96    39.529954    0.8007398   -779.40264     2504.156 
10529000    290.12214     109594.3    416.77099   0.80075925   -789.04955    2453.0819 
10530000    296.71178    109591.64    281.50433    0.8007787   -679.03488    2636.7362 
10531000    292.85498    109588.98    522.81888   0.80079815   -707.67474    2564.9963 
10532000    288.95999    109586.32     136.0727    0.8008176   -682.69779    2546.4466 
10533000    296.00773    109583.66    769.43304   0.80083706    -690.8403    2617.0629 
10534000    295.15854    109580.99    253.99149   0.80085651    -809.3516    2489.0619 
10535000    295.56072    109578.33   -170.51493   0.80087596   -776.23476    2526.6731 
10536000    290.66812    109575.67   -391.27931   0.80089542    -689.2959    2558.9368 
10537000     295.1666    109573.01   -325.86126   0.80091487   -719.07615    2579.4274 
10538000    290.41158    109570.35    62.992908   0.80093433   -737.09224    2508.2737 
10539000    292.09179    109567.69   -900.93238   0.80095378   -801.53415    2462.6082 
10540000    293.92546    109565.02    -418.1986   0.80097324   -696.15167    2588.4821 
10541000    293.27369    109562.36   -472.89251    0.8009927   -721.80946    2555.5407 
10542000    291.40833     109559.7   -609.00087   0.80101215   -828.75968     2427.745 
10543000    289.64513    109557.04     613.9222   0.80103161   -724.93546    2511.8654 
10544000    289.43871    109554.38    8.5235448   0.80105107   -758.59133    2475.9027 
10545000    294.36167    109551.72    59.650163   0.80107053   -789.49969    2500.0087 
10546000    289.89395    109549.06   -129.16929   0.80108999   -792.36865    2447.2128 
10547000    292.28418    109546.39    5.4226715   0.80110945   -788.74152    2477.5509 
10548000    286.81578    109543.73   -132.74655   0.80112891   -729.40793    2475.7747 
10549000    288.47279    109541.07    273.83248   0.80114838   -765.64318    2458.0566 
10550000     290.8869    109538.41    556.30457   0.80116784   -775.00324    2475.6744 
10551000    290.26665    109535.75    -87.51083    0.8011873   -846.96516    2396.7812 
10552000    293.15326    109533.09   -5.4016474   0.80120677   -717.01214    2558.9922 
10553000    291.69244    109530.43    101.53019   0.80122623   -777.30115    2482.3785 
10554000    296.47663    109527.77   -128.77605    0.8012457   -681.95556    2631.1876 
10555000    287.00351    109525.11   -351.68683   0.80126516   -760.77368    2446.5068 
10556000    284.38825    109522.44    14.502425   0.80128463    -796.5791    2381.4757 
10557000    289.26366    109519.78   -662.49322    0.8013041   -665.97673    2566.5612 
10558000    293.05922    109517.12   -414.21296   0.80132356   -751.34998    2523.6034 
10559000    293.44397    109514.46    -738.1482   0.80134303   -724.29899    2554.9541 
10560000    297.85076     109511.8   -86.863362    0.8013625   -718.69395    2609.8052 
10561000    285.91432    109509.14   -312.15303   0.80138197    -719.4661    2475.6427 
10562000    299.64339    109506.48    313.97019   0.80140144   -806.39936    2542.1326 
10563000    294.61227    109503.82   -221.19333   0.80142091   -683.78867    2608.5202 
10564000    296.10765    109501.16    -20.63668   0.80144039    -688.5734    2620.4465 
10565000    287.73791     109498.5   -435.37897   0.80145986   -760.42532    2455.0622 
10566000     290.0648    109495.84   -446.24951   0.80147933   -675.22076    2566.2698 
10567000    290.47397    109493.18   -172.36059    0.8014988     -735.209    2510.8542 
10568000    296.00481    109490.52   -436.45444   0.80151828    -691.2097    2616.6609 
10569000    297.55922    109487.86   -261.02781   0.80153775   -723.45048    2601.7908 
10570000    287.42872     109485.2   -310.74511   0.80155723   -727.06993    2484.9624 
10571000    290.14997    109482.54    684.26146   0.80157671    -727.7939    2514.6486 
10572000    298.40889    109479.88   -409.17298   0.80159618   -805.58267    2529.1537 
10573000     291.7373    109477.22    157.89721   0.80161566   -735.99059    2524.1903 
10574000     286.7575    109474.56   -765.50021   0.80163514   -698.13577    2506.3956 
10575000    297.24828     109471.9    78.442418   0.80165462   -751.70911    2570.0574 
10576000    291.85904    109469.24   -241.02463    0.8016741   -790.44173    2471.0997 
10577000    288.86622    109466.58    54.453996   0.80169358   -761.69457    2466.4018 
10578000    292.23704    109463.92   -651.23799   0.80171306   -784.04357     2481.722 
10579000    296.15393    109461.26   -4.3408272   0.80173254   -772.31406     2537.223 
10580000    284.86798     109458.6     151.3037   0.80175202    -745.7252    2437.6906 
10581000     285.0846    109455.94     76.76235    0.8017715   -615.32635    2570.5103 
10582000    298.86275    109453.28   -121.35918   0.80179098   -749.55223     2590.256 
10583000     291.1736    109450.62   -962.39903   0.80181047   -756.77121    2497.1103 
10584000    299.47029    109447.96   -328.94486   0.80182995   -770.55899    2576.0386 
10585000    290.98477     109445.3    229.82659   0.80184944   -658.10213    2593.6693 
10586000    289.45106    109442.64   -77.755703   0.80186892   -612.87076    2621.7613 
10587000    295.32546    109439.98   -139.13976   0.80188841   -685.98833    2614.2905 
10588000    293.63486    109437.32   -638.90829    0.8019079   -755.48398    2525.9023 
10589000    294.96737    109434.66   -347.68899   0.80192738   -727.99215     2568.285 
10590000     290.6331       109432    127.08926   0.80194687   -672.84213    2574.9992 
10591000    295.10478    109429.34   -188.16468   0.80196636   -726.58553    2571.2272 
10592000    302.30747    109426.68    258.61326   0.80198585   -714.56717     2663.736 
10593000    293.17224    109424.02    68.247371   0.80200534   -784.74421    2491.4722 
10594000    293.25836    109421.37   -130.82428   0.80202483   -780.23961    2496.9393 
10595000    296.61048    109418.71   -863.12913   0.80204432   -706.36247    2608.2765 
10596000    301.28201    109416.05    -791.6489   0.80206381   -675.17379    2691.6698 
10597000    288.55338    109413.39   -177.81596   0.80208331   -765.48975    2459.1107 
10598000    297.74792    109410.73   -639.25364    0.8021028   -750.80974    2576.5402 
10599000    286.85503    109408.07   -226.95724   0.80212229   -696.19831     2509.423 
10600000    288.78325    109405.41    480.79208   0.80214179   -714.52828     2512.641 
10601000    298.94653    109402.75   -475.24182   0.80216128   -663.26553     2677.479 
10602000    293.13052    109400.09   -168.80571   0.80218078   -762.18594    2513.5643 
10603000    289.22436    109397.43   -331.18063   0.80220027   -796.60883    2435.4899 
10604000    293.74077    109394.78  -0.83903175   0.80221977   -704.29195    2578.2779 
10605000    297.34305    109392.12   -7.4041819   0.80223927   -755.65939    2567.1661 
10606000    299.81719    109389.46    76.496019   0.80225877   -762.73291    2587.7412 
10607000    291.64644     109386.8   -8.8710503   0.80227827    -742.9143    2516.2512 
10608000    293.27429    109384.14   -140.58349   0.80229777   -822.92776    2454.4291 
10609000    290.47558    109381.48   -106.63924   0.80231727   -782.64191    2463.4392 
10610000    294.33871    109378.82   -133.93711   0.80233677    -740.3541    2548.8977 
10611000    289.53874    109376.17   -532.87784   0.80235627    -773.1252    2462.4867 
10612000    293.49363    109373.51    506.50813   0.80237577   -679.15814    2600.6499 
10613000    292.03777    109370.85    162.77317   0.80239527   -829.44452    2434.0941 
10614000    293.91159    109368.19   -350.73912   0.80241478   -646.57926    2637.8995 
10615000    295.26441    109365.53    811.26754   0.80243428   -700.79396    2598.8026 
10616000    290.13058    109362.87   -346.36286   0.80245378   -726.69443    2515.5313 
10617000    290.87084    109360.22    588.88894   0.80247329   -792.16066    2458.3375 
10618000    298.57389    109357.56   -177.08976    0.8024928    -714.0742     2622.506 
10619000    291.03239     109354.9    624.93238    0.8025123   -704.91295    2547.3906 
10620000     291.8217    109352.24   -163.73346   0.80253181   -746.39433    2514.7298 
10621000     294.2312    109349.58   -1124.4374   0.80255132   -684.28008    2603.7704 
10622000     292.9705    109346.92     78.11608   0.80257082   -831.50123    2442.4608 
10623000    301.87031    109344.27   -270.08197   0.80259033   -767.19032    2606.2276 
10624000    298.81632    109341.61    160.53146   0.80260984    -722.3864     2616.903 
10625000    301.32098    109338.95   -550.49717   0.80262935   -788.67217     2578.607 
10626000    294.85046    109336.29   -1107.3935   0.80264886   -742.01796    2552.9527 
10627000    295.31675    109333.64   -67.399242   0.80266838   -723.73248     2576.449 
10628000    289.13732    109330.98    -685.6176   0.80268789   -704.80847    2526.3175 
10629000    293.14982    109328.32   -753.73464    0.8027074   -772.58424    2503.3817 
10630000    297.03254    109325.66   -249.79112   0.80272691   -728.12831    2591.2272 
10631000    297.46607       109323   -1008.2099   0.80274643   -714.35177    2609.8485 
10632000    298.19768    109320.35   -371.55881   0.80276594   -794.83068    2537.5454 
10633000    287.24836    109317.69   -283.95818   0.80278546   -778.02068     2431.996 
10634000    297.53399    109315.03   -643.97404   0.80280497   -794.77806    2530.1813 
10635000     291.7635    109312.37   -172.08214   0.80282449   -692.25181    2568.2219 
10636000    290.98498    109309.72    681.07221   0.80284401   -712.23507    2539.5387 
10637000    300.66679    109307.06    137.89402   0.80286353   -721.44241    2638.5261 
10638000    291.40869     109304.4   -492.69203   0.80288304    -733.2262    2523.2825 
10639000     294.2913    109301.75    42.328483   0.80290256   -760.91704     2527.805 
10640000    292.77201    109299.09    945.05227   0.80292208   -708.86471    2562.8792 
10641000    290.44833    109296.43   -475.70078    0.8029416    -785.2346     2460.542 
10642000    292.19437    109293.77    210.74432   0.80296112   -701.06642    2564.2222 
10643000    288.50032    109291.12    112.47993   0.80298065   -790.43174    2433.5757 
10644000    288.58581    109288.46    702.01948   0.80300017   -783.72226    2441.2406 
10645000    296.38516     109285.8    74.477093   0.80301969   -779.95296    2532.1681 
10646000    298.26833    109283.15    251.51661   0.80303921   -778.30306    2554.8625 
10647000    292.04997    109280.49    -447.5848   0.80305874   -725.15407    2538.5209 
10648000     293.7148    109277.83    49.021952   0.80307826   -757.56464     2524.715 
10649000    293.60774    109275.18   -296.41981   0.80309779   -759.38138    2521.7018 
10650000    295.04692    109272.52   -1097.5917   0.80311732   -815.48889    2481.6773 
10651000    298.64075    109269.86    150.51457   0.80313684   -733.36779    2603.9596 
10652000    296.93392    109267.21   -6.7713313   0.80315637   -782.23874    2536.0147 
10653000     290.7974    109264.55   -542.66189    0.8031759   -666.17205    2583.5054 
10654000    296.18069    109261.89   -493.87159   0.80319543   -730.71995    2579.1162 
10655000    289.68375    109259.24   -552.80762   0.80321495   -703.61646    2533.6159 
10656000     294.2874    109256.58   -382.51322   0.80323448   -723.10607    2565.5724 
10657000    291.79744    109253.92    76.627308   0.80325402   -713.69642    2547.1565 
10658000    289.97476    109251.27    848.25306   0.80327355   -752.03998    2488.4445 
10659000    295.81321    109248.61   -263.31194   0.80329308   -758.98853    2546.7409 
10660000    295.16845    109245.95    -196.4426   0.80331261   -740.13606    2558.3881 
10661000    286.43745     109243.3   -413.35527   0.80333214   -687.12161    2513.8332 
10662000    288.49553    109240.64   -255.51783   0.80335168   -719.57608    2504.3778 
10663000    285.19637    109237.98   -1023.6438   0.80337121   -670.04689    2517.0387 
10664000    297.05279    109235.33   -214.70849   0.80339075   -699.65203    2619.9298 
10665000    286.61695    109232.67   -328.67867   0.80341028   -733.16789    2469.7928 
10666000    285.38541    109230.02    271.24004   0.80342982   -718.06157    2471.1366 
10667000    293.92334    109227.36   -1.5679907   0.80344935   -747.42503     2537.185 
10668000    294.20418     109224.7    599.82476   0.80346889   -751.66521    2536.0832 
10669000    288.79323    109222.05    915.09212   0.80348843   -749.28292    2477.9978 
10670000     291.4718    109219.39   -525.74266   0.80350797   -854.49633    2402.7176 
10671000     291.7262    109216.74   -604.07403   0.80352751   -735.11738    2524.9394 
10672000    294.12034    109214.08   -809.28962   0.80354705   -742.20084    2544.6107 
10673000    297.10056    109211.42    336.86666   0.80356659   -732.16307    2587.9525 
10674000    293.47114    109208.77    664.02816   0.80358613    -716.8236    2562.7331 
10675000    290.50237    109206.11   -1154.1369   0.80360567   -735.31342    2511.0671 
10676000    294.73189    109203.46    65.523813   0.80362521    -727.3534    2566.2922 
10677000    285.45485     109200.8    326.86623   0.80364476   -753.06819    2436.9059 
10678000    284.72214    109198.15    -65.11054    0.8036643   -719.40413     2462.382 
10679000    292.69153    109195.49   -490.84946   0.80368385   -749.28173    2521.5627 
10680000    292.06117    109192.83    475.61915   0.80370339   -761.41308    2502.3871 
10681000    289.00854    109190.18   -263.91432   0.80372294    -815.6711    2414.0157 
10682000     297.9481    109187.52    45.548716   0.80374248   -760.40859    2569.1784 
10683000    293.87841    109184.87   -545.17513   0.80376203    -782.9207    2501.1872 
10684000    296.59161    109182.21   -668.77026   0.80378158   -770.67929    2543.7489 
10685000    295.19812    109179.56   -544.56928   0.80380113   -798.52208    2500.3337 
10686000    295.46236     109176.9   -100.39961   0.80382067   -736.49147    2565.3172 
10687000    291.59123    109174.25    26.633393   0.80384022   -802.08274    2456.4659 
10688000    288.31849    109171.59   -97.484096   0.80385977   -882.95341    2339.0222 
10689000    293.63291    109168.94   -216.54491   0.80387933   -766.87481    2514.4897 
10690000     301.0356    109166.28   -684.32235   0.80389888   -724.88743    2639.2025 
10691000    298.21557    109163.63   -390.04403   0.80391843   -727.83159    2604.7444 
10692000    297.14858    109160.97    853.72478   0.80393798   -779.04318    2541.6091 
10693000    295.95949    109158.32   -478.64832   0.80395753   -752.61665    2554.7475 
10694000     292.8328    109155.66    67.216321   0.80397709    -716.2262     2556.197 
10695000    300.20804    109153.01    19.147309   0.80399664   -717.40996     2637.432 
10696000    288.69334    109150.35    357.52156    0.8040162   -719.94237    2506.2221 
10697000      294.684     109147.7    614.42214   0.80403575   -723.01083    2570.0996 
10698000    291.68781    109145.04     -333.862   0.80405531   -692.13994    2567.4879 
10699000    293.20349    109142.39    188.87263   0.80407487   -743.57033    2532.9954 
10700000     284.5108    109139.73   -968.76846   0.80409443   -775.64574    2403.7786 
10701000    296.03626    109137.08   -18.303931   0.80411398   -733.82616    2574.3959 
10702000    290.02127    109134.42   -500.34814   0.80413354   -795.48406    2445.5201 
10703000    289.74531    109131.77    226.83646    0.8041531   -763.54049    2474.3798 
10704000    288.48765    109129.12    201.17339   0.80417266   -687.95129    2535.9146 
10705000     293.8283    109126.46   -509.40666   0.80419222   -715.41202    2568.1359 
10706000    299.73198    109123.81    431.79416   0.80421179   -757.78413    2591.7378 
10707000    291.52619    109121.15    167.25726   0.80423135   -720.26848    2537.5533 
10708000    289.34792     109118.5    256.77108   0.80425091     -681.931    2551.5485 
10709000    294.81193    109115.84   -686.51217   0.80427047   -787.98377    2506.5563 
10710000    294.13282    109113.19   -174.43769   0.80429004   -678.48902     2608.462 
10711000    295.64336    109110.54   -909.20576    0.8043096   -637.96704    2665.8643 
10712000    287.88732    109107.88    187.65488   0.80432917   -771.85967    2445.2975 
10713000    293.50931    109105.23    61.656649   0.80434873   -764.23098    2515.7522 
10714000    292.43749    109102.57   -699.57024    0.8043683   -771.20559       2496.8 
10715000    295.10093    109099.92    119.44425   0.80438787   -779.97948    2517.7902 
10716000     294.0165    109097.27   -14.545092   0.80440744   -820.05578    2465.5953 
10717000    286.80895    109094.61    243.02454     0.804427   -717.28456    2487.8218 
10718000    297.64557    109091.96    106.43127   0.80444657   -730.43189    2595.7742 
10719000    295.36773     109089.3    -74.91222   0.80446614    -669.9608    2630.7904 
10720000    296.17301    109086.65   -229.91498   0.80448571   -735.08586    2574.6644 
10721000    293.62597       109084    287.50923   0.80450528   -678.60454    2602.6824 
10722000    297.62542    109081.34   -633.28139   0.80452486   -774.56072    2551.4203 
10723000    299.42553    109078.69    346.98223   0.80454443    -807.3171    2538.7803 
10724000    290.96501    109076.04   -1005.7293     0.804564    -720.4018    2531.1487 
10725000    293.19658    109073.38   -524.09562   0.80458357   -722.12425    2554.3642 
10726000    294.82545    109070.73   -258.43862   0.80460315   -662.68873    2632.0025 
10727000    290.77897    109068.08   -212.65102   0.80462272   -669.41928    2580.0522 
10728000     296.0183    109065.42   -101.99765    0.8046423   -773.91987    2534.1015 
10729000     298.4263    109062.77   -40.135135   0.80466188   -735.53366    2599.3972 
10730000    294.15635    109060.11     308.9412   0.80468145   -699.56363    2587.6503 
10731000     288.9346    109057.46    -1075.249   0.80470103   -784.65183    2444.2087 
10732000    299.19359    109054.81    30.699464   0.80472061   -696.47213    2647.0333 
10733000    296.01415    109052.16   -738.25605   0.80474019   -760.38112    2547.5939 
10734000    299.93411     109049.5   -65.134834   0.80475977   -730.21304    2621.5677 
10735000    294.13835    109046.85   -33.662278   0.80477935   -755.77934    2531.2335 
10736000    294.40161     109044.2    631.95201   0.80479893   -690.54157    2599.4132 
10737000    292.24176    109041.54   -456.79419   0.80481851    -765.4702    2500.3481 
10738000    302.66329    109038.89   -332.20144   0.80483809   -748.10942    2634.1701 
10739000    293.40001    109036.24   -547.99413   0.80485767   -803.47984     2475.282 
10740000    296.53007    109033.58    739.43735   0.80487725   -780.64831    2533.0921 
10741000    298.95811    109030.93   -129.86439   0.80489684   -753.62502    2587.2488 
10742000    290.93351    109028.28   -28.502665   0.80491642   -753.60739    2497.5911 
10743000    283.02165    109025.63   -104.83375   0.80493601   -711.75754    2451.0255 
10744000     295.8598    109022.97   -178.10149   0.80495559   -791.79488    2514.4552 
10745000    301.52128    109020.32   -132.15251   0.80497518   -768.19858    2601.3189 
10746000    298.65258    109017.67   -167.41827   0.80499477   -778.81569    2558.6439 
10747000    289.11298    109015.01   -234.63225   0.80501435   -725.99181    2504.8622 
10748000    293.48174    109012.36   -230.24823   0.80503394   -728.79578    2550.8794 
10749000    293.71797    109009.71     251.8797   0.80505353   -659.75456    2622.5605 
10750000    289.56395    109007.06   -56.664935   0.80507312   -768.27429    2467.6193 
10751000    290.09775     109004.4   -522.23513   0.80509271   -678.86679     2562.992 
10752000    297.03288    109001.75   -146.49377    0.8051123   -714.26588    2605.0934 
10753000    291.85686     108999.1    610.83319   0.80513189   -675.46229    2586.0548 
10754000    295.67457    108996.45   -392.30494   0.80515149   -702.21815     2601.962 
10755000    296.11729     108993.8   -596.76546   0.80517108   -762.41075    2546.7168 
10756000    292.14055    108991.14    609.04861   0.80519067   -776.62364    2488.0636 
10757000    292.78195    108988.49   -393.90321   0.80521027   -716.96125    2554.8937 
10758000    287.72992    108985.84   -317.72816   0.80522986   -702.09265    2513.3055 
10759000     296.7102    108983.19    -339.0361   0.80524946   -708.82728     2606.926 
10760000    289.80454    108980.53   -717.65899   0.80526905   -747.17233    2491.4099 
10761000    295.02932    108977.88   -206.26603   0.80528865   -738.14627    2558.8232 
10762000    288.44916    108975.23     98.83268   0.80530824   -680.89114    2542.5446 
10763000    301.85828    108972.58    652.39889   0.80532784   -735.68283    2637.6006 
10764000    292.15314    108969.93   -348.31769   0.80534744   -782.70006    2482.1279 
10765000    293.83523    108967.28    106.95329   0.80536704   -782.32401    2501.3014 
10766000    290.76796    108964.62    190.07117   0.80538664   -710.36459    2538.9839 
10767000    290.63759    108961.97    58.463626   0.80540624   -726.77128    2521.1203 
10768000    295.10852    108959.32     60.54259   0.80542584   -748.55162    2549.3028 
10769000     296.5177    108956.67   -138.82487   0.80544544   -684.55377    2629.0484 
10770000    291.67122    108954.02   -362.74696   0.80546504   -762.17217    2497.2704 
10771000    297.91864    108951.36    350.09282   0.80548465   -734.98102    2594.2768 
10772000    292.26543    108948.71   -771.03252   0.80550425   -736.74767    2529.3351 
10773000    294.35818    108946.06      435.186   0.80552385   -689.99693    2599.4724 
10774000    289.92271    108943.41    193.62257   0.80554346   -733.55839    2506.3444 
10775000    290.08691    108940.76   -437.36675   0.80556306    -694.4642    2547.2735 
10776000    289.71264    108938.11   -430.56013   0.80558267   -701.77722     2535.778 
10777000    294.17054    108935.46    22.151616   0.80560228   -684.84712    2602.5254 
10778000    294.38487    108932.81    642.84123   0.80562188   -728.21096    2561.5567 
10779000    293.45942    108930.15    219.04611   0.80564149   -731.85373     2547.572 
10780000    289.31404     108927.5    234.39895    0.8056611   -716.33634    2516.7645 
10781000    296.57986    108924.85   -466.21393   0.80568071   -691.99589    2622.3009 
10782000    296.65002     108922.2   -79.719098   0.80570032   -774.62804    2540.4528 
10783000    296.90934    108919.55   -789.13359   0.80571993   -731.89935    2586.0795 
10784000    286.89496     108916.9   -267.64215   0.80573954   -749.85519    2456.2123 
10785000    288.78058    108914.25   -467.65693   0.80575915   -744.14016    2482.9993 
10786000    295.74934     108911.6   -115.28231   0.80577877   -797.88967     2507.126 
10787000    293.98347    108908.95   -435.71197   0.80579838   -665.44663    2619.8354 
10788000    293.62042    108906.29   -192.28166   0.80581799   -754.43935    2526.7855 
10789000    292.02422    108903.64   -68.994086   0.80583761    -753.3264    2510.0609 
10790000    293.57086    108900.99   -730.73618   0.80585722   -708.23538    2572.4356 
10791000    292.18181    108898.34    546.04583   0.80587684   -777.89369    2487.2547 
10792000    295.97731    108895.69    304.78884   0.80589645   -700.60672    2606.9566 
10793000    288.20947    108893.04   -187.17411   0.80591607   -769.38395    2451.3733 
10794000    296.93405    108890.39   -530.15878   0.80593569   -797.42002    2520.8349 
10795000    290.20546    108887.74    4.3010627   0.80595531   -795.54846    2447.5141 
10796000    289.11101    108885.09   -153.13765   0.80597492   -726.80192      2504.03 
10797000    287.92845    108882.44   -51.057287   0.80599454    -742.0026    2475.6142 
10798000    298.05972    108879.79   -296.37885   0.80601416   -761.04093    2569.7933 
10799000    299.95886    108877.14    21.541893   0.80603378    -782.3579    2569.6994 
10800000    294.56001    108874.49   -305.88828   0.80605341   -739.93929    2551.7856 
10801000    298.87295    108871.84   -328.20125   0.80607303   -674.95593    2664.9663 
10802000    285.05414    108869.19   -36.132954   0.80609265   -768.56535    2416.9309 
10803000    290.62138    108866.54    653.25496   0.80611227    -775.1037    2472.6068 
10804000    294.47867    108863.89    123.98495    0.8061319   -678.89337    2611.9225 
10805000    291.84573    108861.24   -137.39617   0.80615152   -825.80502    2435.5876 
10806000    285.61168    108858.59    1040.4415   0.80617115    -730.9327    2460.7941 
10807000    297.75765    108855.94   -266.13335   0.80619077   -740.22532    2587.2334 
10808000      289.793    108853.29   -431.34589    0.8062104     -772.408    2466.0453 
10809000    294.68418    108850.64   -907.22172   0.80623003   -747.68763    2545.4249 
10810000    300.08243    108847.99   -808.86194   0.80624965   -776.91908    2576.5191 
10811000    295.18404    108845.34    755.55728   0.80626928   -790.16949    2508.5289 
10812000    288.71239    108842.69   -164.53528   0.80628891   -720.15209    2506.2253 
10813000    291.84525    108840.04    121.05897   0.80630854   -719.25645    2542.1308 
10814000    293.86023    108837.39   -459.93974   0.80632817   -734.38959    2549.5152 
10815000    295.30969    108834.74   -311.36545    0.8063478   -765.78994    2534.3126 
10816000    291.44868    108832.09    352.68466   0.80636743   -709.12255    2547.8331 
10817000    291.01072    108829.44   -25.052519   0.80638707    -841.2922    2410.7691 
10818000    292.06186    108826.79   -365.58229    0.8064067   -791.68777    2472.1201 
10819000    296.42661    108824.14    397.18883   0.80642633   -734.15584    2578.4284 
10820000    289.16013    108821.49   -684.48989   0.80644597   -791.62446    2439.7565 
10821000    291.48492    108818.84    -364.6826    0.8064656   -710.87426    2546.4863 
10822000    287.59497    108816.19    284.52526   0.80648524   -736.66187    2477.2283 
10823000    290.12387    108813.54   -118.66417   0.80650487   -764.63132    2477.5195 
10824000    293.57455    108810.89    520.26357   0.80652451   -748.29184    2532.4205 
10825000    291.42935    108808.24    195.66057   0.80654415   -712.26641    2544.4732 
10826000    295.10923    108805.59   -251.63865   0.80656378   -776.12281    2521.7396 
10827000    291.22351    108802.95    -85.57087   0.80658342   -774.77093    2479.6684 
10828000    296.50517     108800.3   -140.01144   0.80660306   -733.29543    2580.1667 
10829000    286.08949    108797.65    320.97393    0.8066227   -669.93315    2527.1331 
10830000    294.08516       108795     -750.365   0.80664234   -719.75038     2566.668 
10831000    292.52439    108792.35   -117.29265   0.80666198   -761.22305    2507.7537 
10832000    284.38468     108789.7    -343.6284   0.80668162   -740.51571    2437.4993 
10833000    294.49547    108787.05    -359.0349   0.80670127   -836.55121    2454.4524 
10834000    295.03075     108784.4   -210.82136   0.80672091   -671.60271    2625.3827 
10835000    295.75166    108781.75    693.30543   0.80674055   -730.44198    2574.5997 
10836000    291.00568     108779.1   -321.58381    0.8067602   -797.41642    2454.5886 
10837000    288.14791    108776.46   -544.85547   0.80677984   -704.48284    2515.5865 
10838000    296.88063    108773.81    843.04267   0.80679949   -717.47146    2600.1864 
10839000    297.40734    108771.16   -65.522233   0.80681913   -742.25196     2581.292 
10840000    283.26309    108768.51   -503.97494   0.80683878   -759.87332    2405.6078 
10841000    287.32417    108765.86   -244.51224   0.80685843   -688.13483    2522.7292 
10842000    298.30013    108763.21    190.12949   0.80687808   -791.23723    2542.2837 
10843000    288.77641    108760.56   -514.97192   0.80689772   -738.83142    2488.2613 
10844000    294.24546    108757.92   -115.73045   0.80691737   -670.30919    2617.9005 
10845000    291.08573    108755.27    474.17335   0.80693702   -804.59748    2448.3021 
10846000    298.60755    108752.62    99.725748   0.80695667   -742.69629    2594.2601 
10847000    293.05835    108749.97   -443.56348   0.80697633   -828.26606    2446.6777 
10848000    288.28044    108747.32   -204.67113   0.80699598   -785.33565    2436.2146 
10849000    291.01693    108744.67   -972.00519   0.80701563   -684.54249    2567.5883 
10850000    291.92577    108742.03     428.5463   0.80703528   -794.12946    2468.1576 
10851000    291.07953    108739.38     354.5263   0.80705494   -762.18528    2490.6451 
[...]
116260000    1683.3682    97497.951    9796.4668   0.90010765   -4000.7987    14810.936 
116270000    394.20421    97499.196   -4540.9016   0.90009615    10353.236    14758.491 
116280000     332.4244    97498.521   -6916.0805   0.90010239    13343.008    17057.869 
116290000    1665.0876    97494.689    9276.9676   0.90013777   -3077.2511    15530.198 
116300000    801.24386    97495.335    278.84674    0.9001318    5328.5301    14282.476 
116310000    74.437946    97496.256    -9660.164    0.9001233    15854.934    16686.782 
116320000    1454.5754    97492.721    6585.8534   0.90015594   -29.613629    16225.349 
116330000    1192.3895    97492.552    4730.9001    0.9001575     821.7591    14146.779 
116340000   0.85851882    97494.615   -10192.778   0.90013845    16103.073    16112.667 
116350000    1131.5729    97491.683    2697.4688   0.90016553    4111.1224    16756.513 
116360000    1494.4311    97490.573    8008.4424   0.90017578   -2384.3895    14315.963 
116370000    94.575676    97493.096   -8783.2594   0.90015247    14417.047    15473.936 
116380000    770.86997    97491.129   -1504.8819   0.90017064    8439.5862    17054.102 
116390000    1667.4646    97489.063    9700.9693   0.90018972   -3916.8475    14717.164 
116400000    318.10397    97491.361    -5920.001    0.9001685    11331.924    14886.754 
116410000    437.49946    97490.333   -5273.3761   0.90017799    12207.392    17096.473 
116420000    1697.3752    97487.488     9701.262   0.90020425   -3711.8281    15256.436 
116430000    620.20642    97489.039   -2233.7307   0.90018994    7511.2359    14442.078 
116440000    182.80638    97488.897    -8038.106   0.90019125    14862.638     16905.51 
116450000    1596.1067     97485.33    8202.0033   0.90022419   -2007.3964    15829.186 
116460000    941.84036    97484.996    1575.1614   0.90022727    3669.3439    14194.464 
116470000    36.608491    97483.578   -9493.1387   0.90024037      16133.6    16542.702 
116480000    1395.6472    97480.872    5613.0126   0.90026535    750.86714    16347.304 
116490000    1239.2767    97480.501     5006.427   0.90026878    301.66289     14150.65 
116500000    2.0224732    97481.874   -9636.1862    0.9002561     16051.59    16074.191 
116510000    1138.2573    97479.243    2447.4159    0.9002804    4027.4308    16747.521 
116520000    1471.0037    97477.997      7600.03   0.90029191   -2151.3832    14287.167 
116530000    68.075859    97480.204   -8635.1964   0.90027152    14821.209     15581.96 
116540000    859.27149     97478.73   -880.28716   0.90028514    7401.6998    17004.108 
116550000    1627.9703    97476.972    9271.3757   0.90030137      -3623.2    14569.461 
116560000      218.911     97479.46    -6687.448   0.90027839    12655.761    15102.104 
116570000     582.4954    97479.013   -4096.7582   0.90028252    10598.864    17108.283 
116580000    1699.4494    97476.645    9915.8323   0.90030439   -4026.9147    14964.529 
116590000    437.44544     97478.95     -4010.52   0.90028311    9792.3722     14680.85 
116600000    335.50476     97479.46   -6885.2707    0.9002784    13303.417    17052.702 
116610000     1679.198    97476.637    9483.9074   0.90030447   -3334.7004    15430.433 
116620000    700.54695    97478.435   -888.97662   0.90028786    6533.1119    14361.764 
116630000    144.18616    97479.824   -8955.6023   0.90027503    15232.574    16843.863 
116640000    1569.5971     97476.82    8027.8984   0.90030277   -1623.1821    15917.155 
116650000    980.02705    97477.903    2340.3976   0.90029278    3227.3169    14179.175 
116660000    28.974033    97480.049   -10087.607   0.90027296    16180.349    16504.135 
116670000    1382.5613    97477.169    5709.0769   0.90029955     922.1017    16372.303 
116680000    1245.7787     97477.41    5327.0523   0.90029733    231.26232     14152.91 
116690000    2.1978691    97480.094   -10160.672   0.90027253    16045.346    16069.907 
116700000    1138.3568     97477.62    2781.5568   0.90029538    4025.7925    16746.995 
116710000    1469.1045    97476.999    7745.3788   0.90030112   -2131.4615    14285.865 
116720000    66.725202    97479.957   -9166.9611    0.9002738    14842.112     15587.77 
116730000    863.37194    97478.144   -435.56362   0.90029055    7352.8658    17001.096 
116740000    1625.8415    97476.729    9330.7821   0.90030362   -3605.2423    14563.629 
116750000    215.65675    97479.653   -7212.3258   0.90027662    12699.615    15109.592 
116760000    587.24603    97478.664   -3593.1123   0.90028574    10544.979    17107.487 
116770000     1699.009    97476.612    9908.0245   0.90030469   -4030.4367    14956.086 
116780000     433.0456    97479.209   -4505.1353   0.90028071    9847.6251    14686.934 
116790000    339.66181    97479.137   -6349.5207   0.90028137     13259.12     17054.86 
116800000    1680.6823    97476.688    9411.1173     0.900304   -3360.9608    15420.759 
116810000    695.57029    97478.678    -1334.352   0.90028561     6592.463    14365.501 
116820000      147.176    97479.497   -8407.4489   0.90027805    15204.192    16848.892 
116830000    1572.8618    97476.924    7890.4146   0.90030182   -1669.3654    15907.455 
116840000    975.00806    97478.109    1961.0463   0.90029087    3284.3753    14180.146 
116850000    30.399238    97479.718   -9545.2962   0.90027601    16171.912    16511.625 
116860000    1387.2467     97477.32    5507.2456   0.90029816    861.16983     16363.73 
116870000    1241.2481    97477.571     5028.662   0.90029584    279.98743    14151.005 
116880000    1.8288444    97479.769    -9640.683   0.90027554     16058.74    16079.178 
116890000    1143.9404    97477.817    2516.0441   0.90029357    3956.9548    16740.554 
116900000    1465.5393    97477.108    7540.1318   0.90030012   -2096.2343    14281.251 
116910000     64.53257    97479.644   -8683.3354    0.9002767    14876.753    15597.908 
116920000    869.23871    97478.378   -762.96786   0.90028839      7283.75    16997.542 
116930000    1623.6193    97476.784    9227.2468   0.90030311   -3587.2909    14556.748 
116940000    211.82311    97479.361   -6776.2545   0.90027931    12752.386    15119.521 
116950000    592.75965    97478.932   -3979.0494   0.90028327    10483.082    17107.205 
116960000    1698.3726     97476.61    9910.8958   0.90030472   -4031.7974    14947.612 
116970000    427.95174    97478.945   -4124.8995   0.90028315    9913.1787    14695.564 
116980000    344.24073    97479.431   -6788.3504   0.90027866    13210.912    17057.822 
116990000    1681.7108    97476.627    9520.6708   0.90030456   -3381.7037     15411.51 
117000000    689.75641     97478.45   -1015.3518   0.90028772    6663.7881    14371.855 
117000481     1334.291    97477.246    6298.6141   0.90029884   -727.06331    14183.715 
Loop time of 433.895 on 96 procs for 1000000 steps with 3750 atoms

Performance: 199.126 ns/day, 0.121 hours/ns, 2304.703 timesteps/s
99.8% CPU use with 96 MPI tasks x 1 OpenMP threads

MPI task timing breakdown:
Section |  min time  |  avg time  |  max time  |%varavg| %total
---------------------------------------------------------------
Pair    | 68.903     | 89.598     | 112.03     |  86.1 | 20.65
Bond    | 10.23      | 16.375     | 21.04      |  47.6 |  3.77
Neigh   | 93.743     | 96.858     | 97.884     |   8.7 | 22.32
Comm    | 123.05     | 151.58     | 178.24     |  87.9 | 34.93
Output  | 0.011401   | 0.051219   | 0.05183    |   1.8 |  0.01
Modify  | 59.984     | 69.588     | 77.403     |  48.7 | 16.04
Other   |            | 9.849      |            |       |  2.27

Nlocal:    39.0625 ave 51 max 29 min
Histogram: 2 7 9 15 16 31 10 1 4 1
Nghost:    1084.07 ave 1116 max 1051 min
Histogram: 3 1 12 7 22 17 19 10 4 1
Neighs:    3302.47 ave 4384 max 2406 min
Histogram: 1 8 8 17 21 22 13 3 2 1

Total # of neighbors = 317037
Ave neighs/atom = 84.5432
Ave special neighs/atom = 6.26667
Neighbor list builds = 234059
Dangerous builds = 1491
unfix		barostat
write_restart  	restart_files/sql.barostat.*

# find the adjustment factor needed to bring rho to the new average rho (target)
variable        averho equal f_dave
variable        adjustrho equal (${rho}/${averho})^(1.0/3.0)
variable        adjustrho equal (0.90029884095515/${averho})^(1.0/3.0)
variable        adjustrho equal (0.90029884095515/0.90025680806668)^(1.0/3.0)

# adjusting to the average rho; pressure would change (slightly)
fix             ensemble all nve
fix             thermostat all langevin ${eqmT} ${eqmT} 100.0 39847
fix             thermostat all langevin 293 ${eqmT} 100.0 39847
fix             thermostat all langevin 293 293 100.0 39847
fix             adjust all deform 1 x scale ${adjustrho} y scale ${adjustrho} z scale ${adjustrho}
fix             adjust all deform 1 x scale 1.00001556305339 y scale ${adjustrho} z scale ${adjustrho}
fix             adjust all deform 1 x scale 1.00001556305339 y scale 1.00001556305339 z scale ${adjustrho}
fix             adjust all deform 1 x scale 1.00001556305339 y scale 1.00001556305339 z scale 1.00001556305339
thermo          10000
thermo_style    custom step temp vol press density pe etotal
run             1000000		# 1 nanoseconds
WARNING: One or more atoms are time integrated more than once (src/modify.cpp:288)
Per MPI rank memory allocation (min/avg/max) = 8.959 | 8.968 | 8.973 Mbytes
Step Temp Volume Press Density PotEng TotEng 
117000481     1334.291    97477.246    6298.6141   0.90029884   -727.06331    14183.715 
117010000    869.68479    97477.289     2978.064   0.90029844    6076.7665    15795.543 
117020000    861.33327    97477.335    2220.9669   0.90029802    5956.0522      15581.5 
117030000    853.19815     97477.38    1849.9384    0.9002976    5813.2868    15347.825 
117040000    863.56819    97477.426    2572.4284   0.90029718    6398.1381    16048.562 
117050000    865.26575    97477.471    1903.2162   0.90029676    6000.2821    15669.676 
117060000    885.70334    97477.517    2570.9677   0.90029634     5822.468    15720.253 
117070000    890.56058    97477.563    3061.9853   0.90029592    5345.2093    15297.274 
117080000    839.70876    97477.608    662.75158    0.9002955    6081.1161    15464.909 
117090000    852.63097    97477.654    3784.1077   0.90029508    5928.4555    15456.655 
117100000    878.71115    97477.699    1117.2067   0.90029466    5659.7152    15479.362 
117110000    876.38961    97477.745    2846.6518   0.90029424    5854.5953    15648.299 
117120000    852.15081     97477.79    1966.0664   0.90029382    6191.3457    15714.179 
117130000      874.323    97477.836    4210.0056    0.9002934    5502.9563    15273.565 
117140000    861.41698    97477.881    1253.9499   0.90029298    5925.7479    15552.132 
117150000    884.97945    97477.927     2366.338   0.90029256    5604.1843     15493.88 
117160000    887.14261    97477.972    1059.0871   0.90029214    5720.3915    15634.261 
117170000    886.08292    97478.018     2522.694   0.90029172    5683.7336    15585.761 
117180000    867.98974    97478.063    3003.0252    0.9002913    5925.6707    15625.505 
117190000    857.55707    97478.109    2268.3849   0.90029087    5987.3979    15570.647 
117200000    884.55536    97478.154    2066.4084   0.90029045    5690.9706    15575.927 
117210000    850.04508      97478.2    2067.2207   0.90029003    5715.5442    15214.846 
117220000    872.36673    97478.245    1915.2281   0.90028961    5864.8348    15613.583 
117230000    884.60535    97478.291    1366.9907   0.90028919     5688.145     15573.66 
117240000    860.25915    97478.336    1482.0592   0.90028877    5690.5877    15304.033 
117250000    887.21519    97478.382    2134.6671   0.90028835    5575.1617    15489.842 
117260000    881.63165    97478.427    3141.7774   0.90028793    5911.1752    15763.459 
117270000    894.74292    97478.473    2996.6277   0.90028751    5535.8609    15534.664 
117280000    876.97919    97478.518    2116.8693   0.90028709    5822.9052    15623.198 
117290000    878.28673    97478.564    2798.3498   0.90028667    5505.0144    15319.919 
117300000    881.65166    97478.609    2793.9975   0.90028625    5555.5544    15408.062 
117310000    873.47107    97478.655    2220.2057   0.90028583    5504.5847    15265.674 
117320000    883.60521      97478.7    2924.3809   0.90028541    5554.5275    15428.866 
117330000     865.3084    97478.746     2720.924   0.90028499    5944.4574    15614.328 
117340000    882.52894    97478.791    2351.4222   0.90028457    5569.3686     15431.68 
117350000    869.22007    97478.837    1799.3252   0.90028415    5937.4753    15651.059 
117360000    847.10538    97478.882    1744.2979   0.90028373    6265.2787    15731.729 
117370000     863.1181    97478.928      1847.28   0.90028331    5636.9663     15282.36 
117380000    904.10731    97478.973    2757.3695   0.90028289    5567.4382    15670.889 
117390000    866.49906    97479.019    2082.6592   0.90028247     5818.646    15501.822 
117400000    861.07669    97479.064    1797.6697   0.90028205    5714.1562    15336.737 
117410000     890.7305     97479.11    2222.5911   0.90028163     5719.304    15673.268 
117420000    884.56048    97479.155     4158.834   0.90028121    5554.6972    15439.711 
117430000    851.07744    97479.201    1046.2472   0.90028079    5980.7589    15491.598 
117440000    864.37529    97479.246    1574.8249   0.90028037    5829.1152    15488.558 
117450000    869.29283    97479.292    3075.2792   0.90027995    5649.6147    15364.012 
117460000    860.54011    97479.337    2395.1822   0.90027953    5685.5749     15302.16 
117470000    860.29999    97479.383    1797.5988   0.90027911    5704.0499    15317.951 
117480000    873.71883    97479.428    2831.2315   0.90027869     5510.268    15274.126 
117490000    856.53577    97479.474    1609.0211   0.90027826    6083.2151    15655.051 
117500000    863.95016     97479.52    1633.2956   0.90027784    5660.5098    15315.202 
117510000    868.74033    97479.565    2415.4264   0.90027742    5474.5265    15182.749 
117520000    889.83764    97479.611    1705.8414     0.900277    5507.6695    15451.656 
117530000    880.89481    97479.656    2315.1575   0.90027658    5557.2647    15401.314 
117540000     850.0265    97479.702     2114.327   0.90027616    5985.5867    15484.681 
117550000    852.71747    97479.747    396.74066   0.90027574    5923.5625    15452.729 
117560000    874.68343    97479.793    1923.5534   0.90027532    5666.8626      15441.5 
117570000     864.4188    97479.838    3304.6957    0.9002749    5589.3469    15249.276 
117580000    880.62774    97479.884    2670.8405   0.90027448    5690.3323    15531.397 
117590000     840.7062    97479.929    1677.3513   0.90027406    5940.1375    15335.077 
117600000    895.38269    97479.975    645.49795   0.90027364    5728.5257    15734.478 
117610000    877.31462     97480.02    3141.0387   0.90027322    5220.6927    15024.733 
117620000    865.25719    97480.066    1134.0162    0.9002728    5776.8215     15446.12 
117630000    884.49101    97480.111    2772.1182   0.90027238    5242.1367    15126.374 
117640000    876.97002    97480.157     1122.339   0.90027196    5469.2361    15269.426 
117650000    846.38776    97480.202     2712.236   0.90027154    5884.7476    15343.179 
117660000    895.02323    97480.248    2743.1876   0.90027112    5434.9386    15436.874 
117670000    872.17872    97480.293    1449.6354    0.9002707    5767.0466    15513.693 
117680000    869.51608    97480.339    1580.7302   0.90027028    5721.0593    15437.951 
117690000    894.58903    97480.384    3180.7382   0.90026986    5461.5998    15458.683 
117700000    851.06642     97480.43    2544.2556   0.90026944    5409.9644     14920.68 
117710000    898.19284    97480.475    3468.6703   0.90026902     5515.728    15553.084 
117720000    884.86819    97480.521    2457.3794    0.9002686    5311.3618    15199.814 
117730000     859.9111    97480.566    1663.7794   0.90026818    5559.7808    15169.336 
117740000    888.39646    97480.612    1538.2931   0.90026776      5763.96    15691.841 
117750000    882.37281    97480.657    3043.9885   0.90026734    5439.8976    15300.464 
117760000       872.88    97480.703    2500.0795   0.90026692    5282.3606    15036.844 
117770000    885.15841    97480.748    2129.1806    0.9002665    5657.4498    15549.145 
117780000    855.54098    97480.794    1957.2701   0.90026608    5948.6819    15509.401 
117790000    883.24601    97480.839    1270.1767   0.90026565    5270.3993    15140.724 
117800000    843.37902    97480.885    1533.3464   0.90026523    5728.2508    15153.059 
117810000    877.27901     97480.93    1567.5016   0.90026481    5613.2396    15416.882 
117820000    892.69347    97480.976    1687.1595   0.90026439    5336.7047    15312.605 
117830000    885.53922    97481.021    2940.0256   0.90026397    5242.0887     15138.04 
117840000    903.33303    97481.067    1803.2466   0.90026355    5610.6214    15705.419 
117850000    871.21944    97481.112    1322.9443   0.90026313    5554.3891    15290.316 
117860000    863.91661    97481.158    373.70837   0.90026271    5881.8109    15536.128 
117870000    865.11738    97481.203    1088.2875   0.90026229    5615.6921    15283.428 
117880000    890.75699    97481.249    2533.3951   0.90026187    5184.6071    15138.867 
117890000    858.37296    97481.294   -187.61987   0.90026145    5924.8099    15517.177 
117900000    874.34255     97481.34    2161.6215   0.90026103    5557.4214    15328.249 
117910000     848.5173    97481.386    4128.3353   0.90026061    5555.1091    15037.338 
117920000    895.23853    97481.431    1876.5777   0.90026019    5341.4981     15345.84 
117930000     875.6639    97481.477    2709.9703   0.90025977    5646.1822    15431.776 
117940000    859.03425    97481.522    1808.3762   0.90025935    5567.8351    15167.592 
117950000    875.07033    97481.568    1036.6423   0.90025893    5775.5373    15554.498 
117960000    856.38612    97481.613    1911.9949   0.90025851    5892.9231    15463.087 
117970000    866.98692    97481.659    1413.3377   0.90025809    5588.8642    15277.492 
117980000    871.61112    97481.704    2413.9402   0.90025767    5468.2274    15208.531 
117990000    882.72231     97481.75    2112.8759   0.90025725    5762.7773    15627.249 
118000000    856.15225    97481.795    1366.3838   0.90025683     5261.946    14829.496 
118000481    901.83102    97481.797      2727.56   0.90025681    5427.0887    15505.102 
Loop time of 499.536 on 96 procs for 1000000 steps with 3750 atoms

Performance: 172.961 ns/day, 0.139 hours/ns, 2001.858 timesteps/s
99.9% CPU use with 96 MPI tasks x 1 OpenMP threads

MPI task timing breakdown:
Section |  min time  |  avg time  |  max time  |%varavg| %total
---------------------------------------------------------------
Pair    | 69.927     | 84.254     | 98.222     |  55.7 | 16.87
Bond    | 10.953     | 14.386     | 16.956     |  31.1 |  2.88
Neigh   | 188.53     | 189.58     | 190.92     |   3.8 | 37.95
Comm    | 155.93     | 171.91     | 188.46     |  47.1 | 34.41
Output  | 0.010787   | 0.050336   | 0.05093    |   1.8 |  0.01
Modify  | 25.982     | 27.743     | 30.09      |  18.6 |  5.55
Other   |            | 11.62      |            |       |  2.33

Nlocal:    39.0625 ave 48 max 31 min
Histogram: 1 12 13 13 11 23 2 12 6 3
Nghost:    1078.9 ave 1117 max 1042 min
Histogram: 4 2 6 15 23 19 14 7 5 1
Neighs:    3303.4 ave 4192 max 2541 min
Histogram: 2 10 8 21 14 19 7 8 4 3

Total # of neighbors = 317126
Ave neighs/atom = 84.5669
Ave special neighs/atom = 6.26667
Neighbor list builds = 490456
Dangerous builds = 0
unfix           ensemble
unfix           thermostat
unfix           adjust

write_restart   restart_files/sql.T${eqmT}K.P${Pout}MPa.*
write_restart   restart_files/sql.T293K.P${Pout}MPa.*
write_restart   restart_files/sql.T293K.P0.1MPa.*

#shell		sh cleanlog.sh	# a script I wrote to clean the log.lammps file into just the thermodynamics data. commented out
Total wall time: 8:30:36
