LAMMPS (10 Feb 2015)
Read molecule SQL:
  30 atoms with 4 types
  29 bonds with 1 types
  34 angles with 1 types
  31 dihedrals with 2 types
  6 impropers with 1 types
Reading restart file ...
  restart file = 10 Feb 2015, LAMMPS = 10 Feb 2015
  triclinic box = (111.702 111.702 111.702) to (158.298 158.298 158.298) with tilt (0 0 0)
  3 by 4 by 4 MPI processor grid
  3750 atoms
  3625 bonds
  4250 angles
  3875 dihedrals
  750 impropers
250 atoms in group endatoms
60 atoms in group samplechains
WARNING: New thermo_style command, previous thermo_modify settings will be lost (../output.cpp:665)
Neighbor list info ...
  1 neighbor list requests
  update every 1 steps, delay 0 steps, check yes
  master list distance cutoff = 10.3
Setting up run ...
Memory usage per processor = 2.17603 Mbytes
Step Time Temp Volume Press Density PotEng TotEng Pxx Pyy Pzz Pxy Pyz Pxz myT 
       0            0    292.91308    101167.02    1466.4126     0.867463   -1149.2906    2124.0297    1895.1236    1348.5515    1155.5627    163.87018   -366.45205   -624.30033    292.91308 
    1000         1000     297.7421    101167.02    1143.4092     0.867463   -1158.5094    2168.7755    354.82149    1223.6797    1851.7264    89.325126  -0.47698496   -517.60761     297.7421 
    2000         2000    288.73089    101167.02    1166.0126     0.867463   -1193.9655    2032.6185    1252.1166    963.95766    1281.9636   -381.43627   -74.306458   -457.25402    288.73089 
    3000         3000    290.05318    101167.02    1164.9929     0.867463   -1113.9125    2127.4482    1927.4554     596.3122    971.21118    287.41209     459.6903   -156.87968    290.05318 
    4000         4000     290.7963    101167.02    324.98145     0.867463   -1169.4597    2080.2055    1040.3711   -7.0391885   -58.387517   -564.61535   -55.172143    -318.3832     290.7963 
    5000         5000    294.44022    101167.02    890.30481     0.867463   -1201.4609    2088.9254    244.16044    473.01066    1953.7433   -91.589299    110.00685    222.29984    294.44022 
    6000         6000    294.69849    101167.02    1372.8526     0.867463   -1145.8561    2147.4162    950.90274    1963.0924    1204.5626   -579.15469    322.78356    323.67621    294.69849 
    7000         7000    286.89356    101167.02    339.05648     0.867463   -1199.4585    2006.5934    496.54346    268.74544    251.88053    93.494341   -688.35366   -496.13695    286.89356 
    8000         8000    295.14388    101167.02      810.823     0.867463   -1113.1376     2185.112    817.38748     1419.056    196.02551   -129.21343     55.49717   -151.47469    295.14388 
    9000         9000    293.18582    101167.02    517.93611     0.867463   -1168.8038    2107.5645    110.09748    1086.7709    356.93991    646.82791    388.96646   -806.74271    293.18582 
   10000        10000    291.44698    101167.02    817.48018     0.867463    -1224.865    2032.0716    581.01325    777.61639    1093.8109    105.21994    338.20148    263.63628    291.44698 
   11000        11000    294.87383    101167.02    922.68601     0.867463   -1077.5909    2217.6408    1066.1188    422.32204    1279.6172   -65.177944   -73.364691   -11.948269    294.87383 
   12000        12000    289.82855    101167.02    589.49009     0.867463   -1148.9079    2089.9427   -492.20857    1130.1799    1130.4989   -725.03606   -581.51336    203.14002    289.82855 
   13000        13000    291.01658    101167.02    1264.5252     0.867463   -1208.6349    2043.4919    1237.4381    1266.0611    1290.0764   -216.99906     159.3001    361.18721    291.01658 
   14000        14000    290.67031    101167.02    1150.5313     0.867463   -1194.4433     2053.814     1453.941     1006.977    990.67585    -800.2819    96.851349   -390.84749    290.67031 
   15000        15000    306.13121    101167.02     728.9867     0.867463   -1191.6916    2229.3421   -424.98198    1386.2353    1225.7068   -336.52489   -453.63083   -18.122674    306.13121 
   16000        16000    289.23129    101167.02    782.43092     0.867463    -1171.636      2060.54    683.90012    1151.8798    511.51286   -430.25557    93.942034    463.87901    289.23129 
   17000        17000    290.28955    101167.02    1296.9636     0.867463   -1166.3981    2077.6042    1170.0866    1166.3037    1554.5006   -731.67213    179.87509    291.34968    290.28955 
   18000        18000    294.73006    101167.02    1278.3964     0.867463   -1109.6684    2183.9568    1479.2891    1485.8192    870.08081   -832.62992   -145.41787   -207.78063    294.73006 
   19000        19000     283.6305    101167.02    372.23637     0.867463   -1175.4359    1994.1511    251.99279    537.45693    327.25937   -229.80365   -581.34439   -622.60566     283.6305 
   20000        20000     298.2251    101167.02    1660.2043     0.867463   -1045.5825       2287.1    2122.6714    928.65426    1929.2874   -543.35446    305.05669    552.66245     298.2251 
   21000        21000     291.7937    101167.02    1146.4347     0.867463   -1176.0765    2084.7348    685.79951     1433.594    1319.9107    118.10933    533.07363    603.38931     291.7937 
   22000        22000    298.95478    101167.02    1674.0285     0.867463   -1076.8474    2263.9893    1686.2559    1181.3693    2154.4603        -99.6   -64.807791    20.809308    298.95478 
   23000        23000    290.77665    101167.02    1056.0262     0.867463   -1283.2124    1966.2332    952.83093    994.83703    1220.4105   -397.87749    139.71845    -565.9111    290.77665 
   24000        24000    295.99505    101167.02    1391.7417     0.867463   -1095.2305    2212.5311    894.93791    1304.1691    1976.1182   -360.01007   -99.862498    212.90975    295.99505 
   25000        25000    295.46905    101167.02    1157.2119     0.867463   -1175.8523    2126.0312    1745.3222    1397.2635    329.04991   -148.08238    619.25469   -546.54613    295.46905 
   26000        26000    294.65447    101167.02    1126.2133     0.867463   -1117.0691    2175.7114    1888.0982    916.91745    573.62417    45.297476   -467.94271    246.84978    294.65447 
   27000        27000    287.29567    101167.02    1765.7844     0.867463   -1151.2974    2059.2481    971.59572    2413.9658    1911.7917   -433.91539   -351.60121   -8.8214321    287.29567 
   28000        28000    290.42045    101167.02    1470.2024     0.867463   -1151.2319    2094.2331    1721.6065    1415.5215     1273.479    494.17862   -178.03154    198.85356    290.42045 
   29000        29000    296.44507    101167.02    1059.1857     0.867463   -1139.0734    2173.7171    1085.4128    741.47286    1350.6716   -509.65116     528.5573    29.940395    296.44507 
   30000        30000    296.75169    101167.02    597.29587     0.867463   -1177.0829    2139.1341    619.64815     1119.819    52.420433    214.89552   -457.74526   -114.11684    296.75169 
   31000        31000    288.22925    101167.02    1105.9918     0.867463   -1204.1868    2016.7915    316.73289     1366.934    1634.3086    188.16028   -181.01144    99.026914    288.22925 
   32000        32000    297.72516    101167.02    2001.5501     0.867463   -1133.3169    2193.7787    2644.8679    1434.8696    1924.9128   -350.01476   -458.00435    153.81234    297.72516 
   33000        33000    288.54414    101167.02    1655.6711     0.867463   -1067.6129    2156.8843    1180.9293    2364.2832    1421.8008   -415.58038   -124.40663   -527.34219    288.54414 
   34000        34000    292.58746    101167.02    714.29965     0.867463   -1175.8466    2093.8349    925.55973    272.00451     945.3347    82.887885    336.73467   -105.28771    292.58746 
   35000        35000    293.66762    101167.02    1728.9429     0.867463    -1098.433    2183.3194    2069.0628    1950.6511    1167.1149   -749.37551   -178.28415   -270.99633    293.66762 
   36000        36000     292.8894    101167.02    939.83868     0.867463   -1106.8056    2166.2501    307.92683    1407.0767    1104.5126   0.60119055    199.36256   -741.63309     292.8894 
   37000        37000    294.54099    101167.02    1616.8852     0.867463   -1157.6982    2133.8141    1593.1836    1352.7564    1904.7156   -58.972016   -779.89699   -258.40243    294.54099 
   38000        38000    286.42991    101167.02    1402.8876     0.867463   -1097.5792    2103.2913    1202.7387    2341.3679    664.55609    -116.2506   -171.18019   -48.813567    286.42991 
   39000        39000    288.09201    101167.02    1044.0584     0.867463   -1097.8648    2121.5799    491.08267     789.9907    1851.1018   -539.25656    -22.21884   -315.86249    288.09201 
   40000        40000    298.21765    101167.02    2063.6432     0.867463   -1169.6226    2162.9766    1890.9824    1990.3618    2309.5853   -604.80217    561.58431    566.52257    298.21765 
   41000        41000     296.3899    101167.02    288.91839     0.867463   -1112.2066    2199.9674   -122.20554      200.855    788.10572   -1021.6861     -594.857   -8.2431465     296.3899 
   42000        42000    300.71932    101167.02    1141.4496     0.867463   -1119.4697    2241.0857    1091.3208    1692.4811    640.54704   -80.401621    535.21571   -70.034875    300.71932 
   43000        43000    290.65296    101167.02    1210.1713     0.867463   -1188.0385    2060.0249    1372.3396    1743.9756    514.19884   -411.18493    234.93292   -302.87578    290.65296 
   44000        44000    291.60126    101167.02    1631.0812     0.867463   -1156.3913    2102.2693    1495.6722    1830.3513    1567.2202    89.693878    214.49728    394.60699    291.60126 
   45000        45000    301.17013    101167.02    1221.7519     0.867463     -1109.67    2255.9233    956.49123     1258.394    1450.3704    -827.4439   -37.170436   -295.95797    301.17013 
   46000        46000    291.38168    101167.02    994.93833     0.867463   -1175.6447    2080.5621    565.27016    1219.6058     1199.939   -396.83851    530.16503   -237.34133    291.38168 
   47000        47000    289.13995    101167.02    1632.6972     0.867463   -1125.5007    2105.6547    1568.7503    1223.4023    2105.9391   -599.32629   -400.12372    160.47026    289.13995 
   48000        48000    287.25366    101167.02    556.76788     0.867463    -1105.334    2104.7419   -20.527548     131.0384    1559.7928   -208.08633    105.99912    227.36423    287.25366 
   49000        49000    298.61601    101167.02    862.14356     0.867463   -1159.9618    2177.0891    -195.5944     2124.537    657.48809   -901.48412   -51.960026    148.98051    298.61601 
   50000        50000    292.34238    101167.02    477.03735     0.867463   -1180.3298    2086.6129   -275.50847    1029.0502    677.57026   -197.60275    240.46116    108.70903    292.34238 
   51000        51000    297.69341    101167.02     1302.504     0.867463   -1109.2441    2217.4967    1717.6153    1353.6906    836.20625   -76.001486   -216.40089    62.745518    297.69341 
   52000        52000    291.43056    101167.02     1264.841     0.867463   -1080.5414    2176.2117    861.15282    1390.2607    1543.1093   -794.03492    -81.15018    -71.89364    291.43056 
   53000        53000    289.76308    101167.02    1389.1808     0.867463   -1132.0217    2106.0972     1159.764    1779.5036    1228.2747    -548.5912    132.20898   -129.85099    289.76308 
   54000        54000    291.79684    101167.02    1249.1762     0.867463   -1134.8131    2126.0332    817.35693    1659.3582    1270.8134   -410.17084   -196.34774   -50.068357    291.79684 
   55000        55000    297.08971    101167.02    1473.3111     0.867463   -1074.0869    2245.9075    1648.0169    1763.2029    1008.7133   -467.31829   -164.11975    25.958973    297.08971 
   56000        56000    297.38741    101167.02    1062.5099     0.867463   -1141.5497    2181.7716    880.29148    915.40795    1391.8302   -509.38391    229.75116    325.28636    297.38741 
   57000        57000    295.14324    101167.02    1391.6872     0.867463   -1052.4986    2245.7439    1049.1403    1914.3857    1211.5356   -690.72517    522.91114   -564.91543    295.14324 
   58000        58000    287.18389    101167.02    1287.1947     0.867463   -1057.4996    2151.7967    809.28632     1926.976    1125.3218    308.34017   -66.015091   -728.27278    287.18389 
   59000        59000    288.88075    101167.02    1474.0147     0.867463   -1147.0529    2081.2059    1054.1382    1387.4469    1980.4591   -645.32203    169.36316    180.33048    288.88075 
   60000        60000    297.04355    101167.02    587.71939     0.867463   -1004.1915     2315.287    320.64389    556.84204    885.67223   -217.77346    268.45484     3.592404    297.04355 
   61000        61000    288.27452    101167.02     1298.444     0.867463   -1115.0094    2106.4747    658.39726    2272.6851    964.24979   -638.85968   -27.624001    391.21307    288.27452 
   62000        62000    288.68765    101167.02    822.91906     0.867463   -1141.7797    2084.3213    1146.1934    95.108876    1227.4549   -303.76927   -721.44133   -502.48765    288.68765 
   63000        63000    299.09729    101167.02    1103.4878     0.867463   -1075.1509    2267.2783    1565.5348    680.41886    1064.5098   -441.84906    910.04428   -295.21654    299.09729 
   64000        64000    294.31546    101167.02    443.49308     0.867463   -1113.7105    2175.2815    699.47931    114.58924    516.41068    156.56635    350.43027    19.541024    294.31546 
   65000        65000    294.64993    101167.02    436.80354     0.867463   -1108.6869    2184.0427    1086.6372    387.90529    -164.1319   -348.10046    -52.59098   -679.87666    294.64993 
   66000        66000    293.42886    101167.02    715.75627     0.867463   -1045.2004    2233.8839    943.76788    325.51796    877.98297   -758.38977   -597.12765    491.30572    293.42886 
   67000        67000    288.30153    101167.02     1618.856     0.867463   -1123.8982    2097.8878    1791.1999    961.15003    2104.2181   -426.07639    830.51467    102.57881    288.30153 
   68000        68000    298.08069    101167.02    917.26178     0.867463   -1124.4891    2206.5795    1100.8101    777.21529    873.75999   -758.63873    67.503987   -156.35487    298.08069 
   69000        69000    300.66713    101167.02    452.25545     0.867463   -1164.6376    2195.3347    1178.1949    513.04396   -334.47254   -564.87296    546.78253   -377.72413    300.66713 
   70000        70000    301.17484    101167.02    863.50564     0.867463   -1113.2562    2252.3897    968.52878    651.76758    970.22054   -662.09387    342.13241    538.54614    301.17484 
   71000        71000    290.57107    101167.02    1082.7016     0.867463   -1112.0375    2135.1107     394.0631    995.41416    1858.6275    10.757694    51.794741    405.83603    290.57107 
   72000        72000    292.72629    101167.02    1461.2749     0.867463   -1035.0709     2236.162    1381.9312     552.8296    2449.0638   -334.69773   -387.51965    85.564311    292.72629 
   73000        73000    297.90215    101167.02    1480.3966     0.867463   -1105.0089    2224.0646    1700.7295    548.44886    2192.0115   -262.63358   -22.539567     209.5276    297.90215 
   74000        74000    295.94503    101167.02    1607.7051     0.867463   -1103.5567    2203.6459    1663.2164    849.37211    2310.5269   -27.076438   -156.82637    72.098558    295.94503 
   75000        75000    284.04342    101167.02    1055.6334     0.867463   -1113.2027    2060.9986    1267.4461    219.14017    1680.3139   -74.058057    482.74929   -97.597482    284.04342 
   76000        76000    300.26384    101167.02    935.15313     0.867463   -1051.6737    2303.7918    342.43262    1399.5125    1063.5143   -120.48856   -458.86093    403.13192    300.26384 
   77000        77000    295.98307    101167.02    914.81645     0.867463   -1154.4266     2153.201     702.4441    511.93991    1530.0653   -105.94541    380.80208   -626.01094    295.98307 
   78000        78000    290.78338    101167.02    1303.7501     0.867463   -1085.5925    2163.9283   -245.44417    1704.5807    2452.1138    429.11151   -224.74084    201.73574    290.78338 
   79000        79000     294.5283    101167.02    524.80047     0.867463   -1132.5573    2158.8133     738.0282    536.78351    299.58971   -812.88298    331.30793    284.43226     294.5283 
   80000        80000    292.94937    101167.02    334.55788     0.867463   -1166.7272    2106.9987    612.24628    296.52683    94.900526   -205.78359     60.27223   -362.52542    292.94937 
   81000        81000    296.49985    101167.02    1483.0832     0.867463   -1091.8535    2221.5491    1222.9524    1455.4836    1770.8137   -740.79042    154.38843   -87.503564    296.49985 
   82000        82000    291.11232    101167.02    1035.7769     0.867463   -1100.3787    2152.8181    283.83821    1170.5622    1652.9303   -116.73908   -94.520379   -620.38215    291.11232 
   83000        83000    288.83163    101167.02    911.07057     0.867463   -1061.8184    2165.8915    1316.3432    138.02089    1278.8476   -657.00986    11.068064     116.5844    288.83163 
   84000        84000    296.61667    101167.02    1386.7772     0.867463   -1090.2683    2224.4398    1521.7758    1247.7392    1390.8166   -715.56328    395.45438    131.65764    296.61667 
   85000        85000     290.0097    101167.02    951.83271     0.867463   -1100.9619    2139.9131    1091.9964   -194.63372    1958.1354    163.48909    333.48106    261.99094     290.0097 
   86000        86000    292.89871    101167.02    964.70373     0.867463   -1071.5353    2201.6245    1087.0759    1221.0902    585.94514   -238.75308    697.56398   -163.33859    292.89871 
   87000        87000    291.33781    101167.02    608.45988     0.867463   -1116.6123    2139.1043   -2.3316578    998.13724    829.57405   -1092.7206    258.94399   -33.876308    291.33781 
   88000        88000    294.12307    101167.02    502.26213     0.867463   -1088.7552    2198.0869    951.15368    238.67618    316.95653   -432.99228     328.9809    136.26446    294.12307 
   89000        89000    299.86131    101167.02    1403.0917     0.867463   -1072.9757    2277.9916    1676.2641    895.23537    1637.7755   -873.48625    40.782994   -720.42121    299.86131 
   90000        90000    287.84552    101167.02    429.47407     0.867463   -1109.1678    2107.5222    743.63791    560.51123   -15.726938   -534.84691   -122.86288   -63.330501    287.84552 
   91000        91000    296.66558    101167.02    1638.5529     0.867463   -1148.9904    2166.2644    2135.5543    577.94291    2202.1614   -1317.2671    119.06496   -114.29951    296.66558 
   92000        92000     299.1335    101167.02    1177.4337     0.867463   -1087.6974    2255.1365    1068.4988    1139.2042    1324.5979   -10.457234   -211.89243   -177.93217     299.1335 
   93000        93000    286.44305    101167.02    523.05317     0.867463    -1064.757    2136.2604    729.27105      657.667    182.22147   -1417.3954    552.54473     245.2019    286.44305 
   94000        94000    295.58431    101167.02    2223.4134     0.867463    -1066.221    2236.9505    1849.0906    2902.2012    1918.9486   -1306.0015    823.04235   -592.26769    295.58431 
   95000        95000    288.07051    101167.02     1691.847     0.867463   -1077.6503    2141.5541    2132.9074    1411.5353    1531.0984    470.84199   -680.76794   -123.81349    288.07051 
   96000        96000    287.16081    101167.02     1009.078     0.867463   -1117.6124     2091.426    1022.5615    492.20073    1512.4717   -804.46791     472.3497   -821.05851    287.16081 
   97000        97000    297.51858    101167.02    496.93251     0.867463   -1031.4579    2293.3291    612.97162    775.17797    102.64795   -960.43428    388.00172    387.98956    297.51858 
   98000        98000    286.88748    101167.02    1122.3704     0.867463   -1166.4478    2039.5361    1099.3351    1307.6402    960.13578   -1125.0092   -172.23548    -208.9282    286.88748 
   99000        99000    291.79548    101167.02    112.67383     0.867463   -1068.7585    2192.0726   -430.47152    121.25354    647.23948   -70.178578    141.00654    343.39144    291.79548 
  100000       100000    291.02057    101167.02    1230.6766     0.867463   -1080.0644    2172.1071    789.08019    1706.2826     1196.667    53.646233    283.41496    28.114058    291.02057 
  101000       101000    291.44627    101167.02    1275.2527     0.867463   -1171.4033    2085.5253    781.62118     883.0686    2161.0682    75.019144    -147.5197    116.79241    291.44627 
  102000       102000    292.37982    101167.02    1649.9331     0.867463   -1045.7666    2221.5945    1592.1455    1532.3393    1825.3145   -21.404061   -234.21255    378.05627    292.37982 
  103000       103000    290.84458    101167.02    1244.8627     0.867463   -1150.1027     2100.102    402.99277    1295.0173     2036.578   -99.927508   -698.88826   -238.00338    290.84458 
  104000       104000    291.56988    101167.02    1412.9229     0.867463   -1060.1905    2198.1195    712.68384    1751.3546    1774.7302    607.14151    233.69214   -164.51098    291.56988 
  105000       105000    294.63851    101167.02    2299.5513     0.867463   -1101.6776    2190.9244    2054.7006    2402.9345    2441.0189   -189.71778     108.9991   -74.334749    294.63851 
  106000       106000    291.98918    101167.02    1241.5368     0.867463   -1020.4964    2242.4992    1060.1432    1189.4793    1474.9878   -1.4983375    568.31978   -789.64767    291.98918 
  107000       107000    293.13388    101167.02    1955.7449     0.867463   -1159.6393    2116.1485    2039.3339    1466.1354    2361.7655   -1207.6951    659.53339     46.62343    293.13388 
  108000       108000    289.23342    101167.02    837.37587     0.867463   -1123.7012    2108.4987    277.91503    756.85558     1477.357   -773.39851    132.38742    255.86439    289.23342 
  109000       109000     298.8041    101167.02    1039.8691     0.867463   -1127.8152    2211.3376    719.64475    1334.6868    1065.2757   -130.60921   -78.646973   -501.76557     298.8041 
  110000       110000    287.37605    101167.02    1346.1118     0.867463    -1023.429    2188.0148    2248.5308    450.35176    1339.4529   -1540.6634    105.11601    464.65757    287.37605 
  111000       111000    290.45324    101167.02    401.29586     0.867463    -1102.316    2143.5155    912.41175   -331.36509    622.84092    243.18437    143.35141   -326.85451    290.45324 
  112000       112000    294.72604    101167.02    1395.0346     0.867463   -1113.0563     2180.524    1490.8039    2115.1436    579.15627   -516.49977   -239.60926   -293.35616    294.72604 
  113000       113000    294.29045    101167.02    1461.5475     0.867463   -1141.6868    2147.0257    2076.3803    1124.5478    1183.7143   -712.93611   -768.49532    316.02321    294.29045 
  114000       114000    294.69644    101167.02    368.70648     0.867463   -1080.9663    2212.2832     1149.048    5.7148526   -48.643415   -974.87666   -823.53873   -484.66586    294.69644 
  115000       115000    296.42069    101167.02    1342.6365     0.867463   -1164.2434    2148.2747      1883.95    819.46695    1324.4925   -185.82795   -310.20287    273.85935    296.42069 
  116000       116000    292.80445    101167.02    900.20054     0.867463   -1005.9752    2266.1313    846.48916    988.34887     865.7636    -1263.573   -168.83213    397.90476    292.80445 
  117000       117000    293.25483    101167.02    1785.1283     0.867463   -1172.6778    2104.4616    1945.6506    2012.5887    1397.1456   -192.60013   -589.87206    318.19321    293.25483 
  118000       118000    291.11785    101167.02     1912.221     0.867463    -1012.596    2240.6625    1810.1151    2087.0802    1839.4677   -39.104931     102.2178   -437.32672    291.11785 
  119000       119000    292.20733    101167.02    1574.5815     0.867463   -1121.8933    2143.5403    1336.3352    1774.7716    1612.6377   -878.77211   -40.673461   -536.31393    292.20733 
  120000       120000    291.55388    101167.02     1373.805     0.867463    -1034.023    2224.1082    1500.2306     1267.845    1353.3394   -522.71643   -4.7152421    338.74393    291.55388 
  121000       121000     292.5303    101167.02    569.78641     0.867463   -1072.1425    2196.9002    171.46261    1711.4648   -173.56817   -690.31597    337.78028   -177.81131     292.5303 
  122000       122000    297.98766    101167.02    1577.3717     0.867463   -1079.9001     2250.129    746.41714    1526.4223    2459.2758    -377.9997   -370.28864    495.67174    297.98766 
  123000       123000    291.01187    101167.02    699.52638     0.867463   -1079.3417    2172.7325     688.3229    538.05539    872.20085   -1453.4688    330.28122    686.28116    291.01187 
  124000       124000    293.49789    101167.02    1656.4594     0.867463    -1022.988    2256.8676    1764.3895    1496.2759    1708.7129   -53.228997    -373.4522   -382.56615    293.49789 
  125000       125000    287.63439    101167.02    1436.9965     0.867463   -1070.5001    2143.8305      1912.24    836.87653     1561.873   -105.19067   -213.97765   -273.01649    287.63439 
  126000       126000    284.79184    101167.02    1197.3242     0.867463   -1089.3136    2093.2514    1713.1449    515.61833    1363.2093   -545.27946   -194.82342    410.57243    284.79184 
  127000       127000    288.43312    101167.02    1081.8402     0.867463   -1035.7873    2187.4692    711.23427    1499.7031    1034.5833   -1497.5683   -258.27324   -40.206497    288.43312 
  128000       128000    285.92473    101167.02    1244.2788     0.867463   -1095.2236    2100.0015    1368.1644    666.47198       1698.2   -857.83832   -3.5313969   -20.673708    285.92473 
  129000       129000    292.96296    101167.02     1700.021     0.867463   -1060.4088     2213.469    1629.9624    1227.2751    2242.8254   -1409.3577   -61.267673   -686.23854    292.96296 
  130000       130000    299.83936    101167.02    985.16892     0.867463   -1150.3789     2200.343    862.98696    1661.9416    430.57816   -711.76861    546.42605    233.94704    299.83936 
  131000       131000    289.26571    101167.02    970.99976     0.867463   -1098.3024    2134.2584    1457.1364    793.02043    662.84242   -448.71987    140.44045    482.74976    289.26571 
  132000       132000    291.60386    101167.02    1142.7727     0.867463   -1047.1804    2211.5093    1053.8555    1152.6617    1221.8009   -499.98921   -119.97155    293.25587    291.60386 
  133000       133000    287.78248    101167.02    1204.1536     0.867463    -1101.984    2114.0016     1407.117    821.67508    1383.6688   -282.34742    474.58039    38.284399    287.78248 
  134000       134000    294.71865    101167.02    1098.9262     0.867463   -1016.6364    2276.8613    1110.4725    889.76332    1296.5428   -377.34768   -554.29479   -839.72479    294.71865 
  135000       135000    283.86628    101167.02    1102.3297     0.867463   -1148.0352    2024.1865    1624.6194    1005.2427    677.12693    20.552662     676.3492    -109.3667    283.86628 
  136000       136000     299.5237    101167.02    768.84506     0.867463   -1081.5377    2265.6568    1447.9831    737.35934    121.19272     -648.219    109.54816    8.0298115     299.5237 
  137000       137000    293.79369    101167.02    1734.5968     0.867463   -1187.5354    2095.6258    1262.7343    2047.3876    1893.6686    40.718659     18.58549    131.84222    293.79369 
  138000       138000    292.32775    101167.02    1273.3829     0.867463   -1115.8526    2150.9267    1735.4186    115.43251    1969.2975   -412.49679    858.50732    207.89589    292.32775 
  139000       139000    299.33152    101167.02      901.187     0.867463   -1099.0728     2245.974    679.72773    1515.6321    508.20117   -35.962123   -81.762331   -287.29093    299.33152 
  140000       140000    297.24695    101167.02    396.82367     0.867463   -1149.9607    2171.7909    1150.3946   -209.77964    249.85609   -522.27258    -343.6011    489.50905    297.24695 
  141000       141000    293.89472    101167.02    1115.8743     0.867463   -1116.6349    2167.6553    211.60839     1449.989    1686.0254   -353.37682   -395.66202    50.498872    293.89472 
  142000       142000    294.98851    101167.02    708.07227     0.867463   -1089.6539    2206.8595   -161.54544    1021.8962    1263.8661    -196.7703   -250.69438   -156.54102    294.98851 
  143000       143000    294.15623    101167.02    985.09904     0.867463   -1166.0505    2121.1621    514.37565     1792.906    648.01549   -645.62127   -624.69989    441.40513    294.15623 
  144000       144000    297.90037    101167.02    1214.7443     0.867463   -1054.2457    2274.8078    1653.1168    1564.1689    426.94727   -737.14798      94.2206   -751.54796    297.90037 
  145000       145000    287.77197    101167.02    1205.2149     0.867463   -1109.9582      2105.91    1344.2468    1273.5469    997.85101   -466.66581   -575.17347    29.979871    287.77197 
  146000       146000    285.74516    101167.02    1671.1104     0.867463   -1021.4346    2171.7838    1868.1665    1516.0481    1629.1165   -532.91992   -589.22714   -22.093868    285.74516 
  147000       147000    296.01414    101167.02    1221.8795     0.867463   -1009.3607    2298.6141    1788.9952    489.84377    1386.7996   -663.59498   -137.37057   -87.744218    296.01414 
  148000       148000    289.40538    101167.02    1603.9103     0.867463   -1105.3512    2128.7704    897.20774    2410.0047    1504.5185   -331.11253   -293.30749   -278.90946    289.40538 
  149000       149000    296.92389    101167.02    1680.2961     0.867463   -1075.2451    2242.8963    1048.8614    1744.5983    2247.4288   -532.82716    290.73394    282.56737    296.92389 
  150000       150000     291.7161    101167.02    1168.5905     0.867463   -1144.7991    2115.1449     1431.167    1271.1619    803.44269   -1226.5017     485.3889    217.98857     291.7161 
  151000       151000    301.43844    101167.02    830.32886     0.867463   -1056.9232    2311.6685    848.32367    194.39285    1448.2701      -55.607   -289.34886    27.780511    301.43844 
  152000       152000    283.29951    101167.02    1905.6089     0.867463   -1108.2495    2057.6386    2130.0748    1701.5861    1885.1658   -860.15799   -267.90583    721.22237    283.29951 
  153000       153000     295.9981    101167.02    1603.4422     0.867463   -1063.6959    2244.0997    1847.8163    850.24303    2112.2674   -1320.2534    341.25526    314.73309     295.9981 
  154000       154000    293.91231    101167.02    705.16735     0.867463    -1040.138    2244.3488     575.7545    498.82391    1040.9236   -277.28552   -190.30883    85.683503    293.91231 
  155000       155000    291.16712    101167.02     1262.172     0.867463   -1055.3587    2198.4505    1625.2114    1274.3237    886.98082   -12.490092   -570.46825   -43.716541    291.16712 
  156000       156000     292.1364    101167.02     256.4416     0.867463   -1131.8567    2132.7842   -94.023735   -97.786226    961.13476   -1123.4468    569.90914    352.91732     292.1364 
  157000       157000    298.56267    101167.02    1286.3738     0.867463   -976.66263    2359.7921    875.18545    2254.1489    729.78697   -57.087703   -482.72875    336.33139    298.56267 
  158000       158000    283.35862    101167.02    1399.6924     0.867463   -1063.1772    2103.3714    776.63437    1982.0943    1440.3485    31.067064   -250.93483    581.51844    283.35862 
  159000       159000    299.44439    101167.02     804.8596     0.867463   -1114.8469    2231.4613      788.731    240.00264    1385.8452    -125.5556   -291.68591    682.51013    299.44439 
  160000       160000    299.27499    101167.02     1226.484     0.867463   -1076.0018    2268.4132    1058.5884    1555.2458    1065.6177   -196.40779    346.08964   -501.99397    299.27499 
  161000       161000    286.06264    101167.02    674.35361     0.867463   -1139.4574    2057.3089    1525.7295   -528.76879    1026.1002   -668.85986   -130.82175   -586.91019    286.06264 
  162000       162000    298.90176    101167.02    1164.8835     0.867463   -1029.1504    2311.0938    909.67395    1127.1352    1457.8412   -159.16063   -23.265567   -88.907426    298.90176 
  163000       163000    286.92408    101167.02    1175.3883     0.867463   -1037.0711    2169.3218     968.2094     1891.955    666.00047   -207.33681    166.08128   -83.984826    286.92408 
  164000       164000    294.67883    101167.02    96.514342     0.867463   -1146.0752    2146.9775    317.92979    892.41547   -920.80224   -725.32275    457.98983    220.35865    294.67883 
  165000       165000    299.50825    101167.02    1231.0317     0.867463   -1101.0146    2246.0071    831.76446    1556.7272    1304.6036   -798.67331    441.66208    201.20936    299.50825 
  166000       166000    290.14586    101167.02    1163.9161     0.867463   -1155.5165      2086.88    593.72536    1157.3171    1740.7059   -439.14899    70.179375    64.573379    290.14586 
  167000       167000    298.75924    101167.02    1276.4703     0.867463   -1100.7013    2237.9502    1356.3008    640.30365    1832.8065   -420.94271    318.65105    63.569448    298.75924 
  168000       168000    288.00965    101167.02    972.02621     0.867463   -1144.8832    2073.6411    197.11516    1072.3672    1646.5963    -835.3182   -300.77686   -216.22981    288.00965 
  169000       169000    294.41451    101167.02    894.01661     0.867463   -1078.8137    2211.2852    1148.1923     756.2422    777.61531    -18.24275    139.13935   -322.93034    294.41451 
  170000       170000    289.12671    101167.02    1033.6127     0.867463   -1060.2575    2170.7499    1858.1472    503.45547    739.23545   -842.89603    239.35086    216.81831    289.12671 
  171000       171000    297.20935    101167.02    405.43529     0.867463   -1053.7724    2267.5589    175.26244    470.19554    570.84789    235.34399   -111.59626   -166.36512    297.20935 
  172000       172000    293.52734    101167.02     675.8143     0.867463   -1067.5912    2212.5934    648.83866    228.42104    1150.1832    -78.77021    -85.20943   -483.76996    293.52734 
  173000       173000    286.42414    101167.02    1027.0288     0.867463   -1098.4977    2102.3084   -32.218877    1533.0386    1580.2666   -238.24748   -232.19959    58.180618    286.42414 
  174000       174000    297.06931    101167.02    1682.6206     0.867463   -1049.0887    2270.6777    954.65436    1884.2459    2208.9617   -374.02784   -489.85009   -309.80242    297.06931 
  175000       175000    289.63909    101167.02    1093.8601     0.867463   -1108.6519    2128.0813    1537.6905    382.41833    1361.4715   -697.56736    -251.6801   -79.844228    289.63909 
  176000       176000     293.1857    101167.02    1002.2708     0.867463   -1112.8046    2163.5623     772.4139     1080.397    1154.0015   -1045.1454   -5.9107472    13.506126     293.1857 
  177000       177000    291.52258    101167.02    1240.8402     0.867463   -1055.6662    2202.1153    1415.1509    1306.4221    1000.9475   -506.41609     334.2273   -113.56095    291.52258 
  178000       178000     292.6878    101167.02    916.48093     0.867463   -1087.9757    2182.8271    1303.1739   -224.82667    1671.0955   -337.16932   -9.3373927    65.129689     292.6878 
  179000       179000    287.38383    101167.02    977.98303     0.867463   -1065.1086     2146.422    163.14388    1274.3793     1496.426   -666.71887    401.02556    122.66325    287.38383 
  180000       180000    288.90783    101167.02    1529.5827     0.867463   -1001.7347    2226.8267    1443.9242    1491.1932    1653.6308   -254.10867   -39.760568   -343.56292    288.90783 
  181000       181000    291.58132    101167.02    158.15245     0.867463   -1040.5105    2217.9274    408.80471   -177.44519    243.09784   -816.59637   -609.19331   -269.30675    291.58132 
  182000       182000      292.619    101167.02    1608.1563     0.867463   -1053.4301    2216.6039    985.13133    969.58055    2869.7569   -1103.1432    406.79031    127.25037      292.619 
  183000       183000    286.65471    101167.02     1027.605     0.867463   -1143.9516    2059.4311    1447.6043     385.4491    1249.7615   -566.04349   -795.59131   -127.51157    286.65471 
  184000       184000     296.0313    101167.02    1358.8624     0.867463   -1039.6576     2268.509    1598.8524    966.54719    1511.1877   -498.84616    -212.9842   -345.57632     296.0313 
  185000       185000    286.79246    101167.02    430.32055     0.867463   -1035.1483    2169.7738    310.97496    587.01881    392.96788   -514.33403   -390.56596    609.78589    286.79246 
  186000       186000    298.86537    101167.02    1095.3345     0.867463   -1142.9202    2196.9173    1664.2188    1331.8826    289.90219   -274.64798   -1103.7981   -125.97573    298.86537 
  187000       187000    289.48183    101167.02    586.59643     0.867463    -1032.931    2202.0449    912.91561   -341.41593    1188.2896   -107.28095   -718.12899   -432.16588    289.48183 
  188000       188000    300.95968    101167.02    2255.7646     0.867463   -1055.9382    2307.3034    1866.3499    2535.4343    2365.5097   -102.66918   -708.60691   -271.55323    300.95968 
  189000       189000    288.77072    101167.02    1403.5489     0.867463   -1065.2227    2161.8065    2604.3892    920.64936    685.60829   -415.49233    -103.4062    447.40183    288.77072 
  190000       190000    293.06635    101167.02    842.89473     0.867463   -1095.6422     2179.391    221.09468     432.3986    1875.1909   -317.57947    95.484361    39.180487    293.06635 
  191000       191000    293.61578    101167.02    709.74917     0.867463    -1021.504     2259.669    175.12869    756.39976    1197.7191   -492.98227    578.51362   -333.31702    293.61578 
  192000       192000    290.33665    101167.02    1783.2503     0.867463    -1124.037    2120.4915    1791.7976    1737.7035    1820.2498   -113.71493    321.94705    264.78936    290.33665 
  193000       193000    299.37259    101167.02    622.59985     0.867463   -1126.8859    2218.6197    489.73623    271.56834     1106.495   -513.03252    446.51921    462.12637    299.37259 
  194000       194000    295.28919    101167.02    545.39227     0.867463   -1185.1444     2114.729    470.04502    973.51926    192.61254   -436.88687   -146.32331    216.74893    295.28919 
  195000       195000    299.19942    101167.02       1375.1     0.867463   -1027.6311    2315.9394    1462.9016    1183.0978    1479.3007   -288.29548   -125.92415   -609.32429    299.19942 
  196000       196000    290.28493    101167.02    1104.1141     0.867463   -1114.9094    2129.0412    754.29013    1056.8375    1501.2147   -220.90268   -140.08523   -42.697161    290.28493 
  197000       197000    289.39897    101167.02    1215.9513     0.867463   -1060.0821    2173.9679    1013.5765    1422.2631    1212.0144   -512.94056    -550.5153    502.75094    289.39897 
  198000       198000    292.97869    101167.02    1256.2498     0.867463   -973.59572    2300.4578    1149.6041    1619.3053    999.83998   -889.99755   -392.80777   -116.84186    292.97869 
  199000       199000    286.15389    101167.02    1640.8611     0.867463   -1057.3939    2140.3921     1327.799    2103.8939    1490.8904   -428.95763   -203.90666   -401.07722    286.15389 
  200000       200000    293.48294    101167.02    1510.4413     0.867463   -1131.3642    2148.3243    1487.8466    2077.2509    966.22635   -454.89179    352.55831    587.30661    293.48294 
  201000       201000    299.01206    101167.02    1226.8323     0.867463   -1102.6894    2238.7874    874.51814    1355.7916    1450.1871   -941.18235   -103.93108   -252.78894    299.01206 
  202000       202000    287.18274    101167.02    921.69952     0.867463   -1082.4227    2126.8607     906.5188    898.21731    960.36244   -481.89452   -532.23842    55.011025    287.18274 
  203000       203000    293.63112    101167.02    601.85312     0.867463   -1128.3836    2152.9609   -628.37247    1148.7331    1285.1988   -501.50777   -182.91206    367.86899    293.63112 
  204000       204000    298.96049    101167.02    1640.2948     0.867463   -1136.4358    2204.4647    895.80048    2144.5027    1880.5813   -724.25082   -529.38225   -581.83037    298.96049 
  205000       205000    293.42772    101167.02    1770.5592     0.867463   -1125.6925    2153.3789    1357.5666    2146.0295    1808.0814    86.983756    220.76863     317.6304    293.42772 
  206000       206000      296.079    101167.02    1295.1467     0.867463   -1102.2738    2206.4259     1695.657    1718.2831    471.50003    362.00931   -320.38996    302.12996      296.079 
  207000       207000    289.56078    101167.02    821.48374     0.867463   -1072.2907    2163.5675    1562.5638   -72.674731    974.56216   -281.05638    925.80268    106.75417    289.56078 
  208000       208000    293.14285    101167.02    793.58953     0.867463   -1137.2262    2138.6617    1207.6988    431.58898    741.48081   -749.59679   -207.54115    111.60269    293.14285 
  209000       209000    296.58887    101167.02    1513.0452     0.867463   -1097.5992    2216.7984    1919.0096    1321.1345    1298.9916    228.25332   -110.24278   -6.7841242    296.58887 
  210000       210000    291.67368    101167.02    1175.9295     0.867463   -1130.4019    2129.0681    1639.8406    1432.9903    454.95757    281.53469    298.14222    -736.0757    291.67368 
  211000       211000     294.8682    101167.02    1535.4555     0.867463   -1085.2137    2209.9552    1003.7963    1987.0493    1615.5208   -479.64654   -371.68839    94.079604     294.8682 
  212000       212000    289.17072    101167.02    1067.1403     0.867463    -1153.783    2077.7162    157.61838    2016.0852    1027.7174   -487.44734   -889.75278     43.24623    289.17072 
  213000       213000    295.12592    101167.02    1014.0184     0.867463   -1101.9621    2196.0868    441.36054    1014.6297     1586.065   -959.16519   -250.04799    329.04704    295.12592 
  214000       214000     293.1618    101167.02    1017.9268     0.867463   -1167.5013    2108.5984    573.16433    1385.3563    1095.2598     147.0175   -99.825375    90.197986     293.1618 
  215000       215000    292.42215    101167.02    734.78819     0.867463   -1107.4072     2160.427    1140.7957    1116.5467   -52.977814    -158.2284   -1037.2998   -136.83141    292.42215 
  216000       216000    295.89651    101167.02    1118.6183     0.867463   -1098.2616    2208.3987    878.84706    1297.1644    1179.8434    219.64849   -452.65087   -334.63405    295.89651 
  217000       217000    291.91165    101167.02    1288.4415     0.867463   -1053.2062     2208.923    1182.3816    1610.2445    1072.6984   -218.85252   -281.63956   -74.822806    291.91165 
  218000       218000    290.79701    101167.02    790.97256     0.867463   -1161.2174    2088.4557     602.8378    708.78031    1061.2996    36.538812   -13.880923   -51.429133    290.79701 
  219000       219000    296.38109    101167.02    911.29248     0.867463    -1086.486    2225.5895    204.74668    1350.0846    1179.0462   -461.83775   -448.21518   -700.27438    296.38109 
  220000       220000    290.66992    101167.02    661.89339     0.867463   -1079.0841    2169.1688    1556.9216    593.93373   -165.17512   -326.75125    -787.4676     337.6934    290.66992 
  221000       221000    294.35372    101167.02    1255.2963     0.867463    -1120.011    2169.4085    633.97574    1545.2253    1586.6878   -470.23761    296.99666   -220.68561    294.35372 
  222000       222000    290.58609    101167.02     635.7508     0.867463   -1084.0058    2163.3103    1243.0731   -9.5081056    673.68744     -849.817   -287.93957    184.50696    290.58609 
  223000       223000    286.60063    101167.02    892.38509     0.867463    -1009.907    2192.8714    964.77572     1075.751    636.62854   -814.66967   -276.17326    515.81007    286.60063 
  224000       224000    290.32366    101167.02    1692.9767     0.867463   -1047.6863    2196.6971    2040.0375    1712.7912    1326.1016   -124.11707   -41.405827   -802.20696    290.32366 
  225000       225000    290.14942    101167.02    852.22593     0.867463   -1028.2732    2214.1631    1244.2027    116.75139    1195.7237   -806.25553   -593.15016   -306.65639    290.14942 
  226000       226000    296.13275    101167.02    784.69303     0.867463   -1025.2762    2284.0242    1300.7303    510.04054     543.3082   -510.78599   -91.491937    272.02434    296.13275 
  227000       227000    290.77167    101167.02    1277.8302     0.867463   -1113.8713    2135.5187    1123.1843    1925.4399    784.86651   -310.00791    -200.7945   -113.65977    290.77167 
  228000       228000    296.29158    101167.02    1810.6936     0.867463   -1163.7734    2147.3019    1233.9329    1948.0464    2250.1015   -430.65585    1005.1517    60.987135    296.29158 
  229000       229000    296.16554    101167.02    770.95767     0.867463    -945.8435    2363.8232    1521.2378    70.276992    721.35816    475.47214    104.61753   -97.899129    296.16554 
  230000       230000    290.65997    101167.02    1299.1468     0.867463   -1174.3208    2073.8209    1501.9531    1233.2455    1162.2416   -431.04125   -736.23204   -645.12443    290.65997 
  231000       231000    297.05778    101167.02    1077.8821     0.867463   -981.82345    2337.8142    1492.8255    996.12173    744.69907   -534.66417   -32.653558   -13.871101    297.05778 
  232000       232000     294.9665    101167.02    1181.5944     0.867463   -1058.0922    2238.1752    1115.2444     1738.364    691.17489    69.731298    125.32038   -750.27614     294.9665 
  233000       233000    293.83095    101167.02    366.99756     0.867463   -1106.3731    2177.2044    483.99447    766.19957   -149.20137   -907.69557   -195.25109    49.413062    293.83095 
  234000       234000     291.6458    101167.02    1439.4304     0.867463    -1089.655    2169.5035    1079.2266    1366.0856    1872.9788   -570.80062     81.30138    -441.9184     291.6458 
  235000       235000    301.13761    101167.02    642.54235     0.867463   -1084.9392    2280.2907   -211.14955    1243.3434    895.43315   -96.774069   -267.84728   -19.157705    301.13761 
  236000       236000    291.69338    101167.02    1145.7342     0.867463   -1128.5138    2131.1764    1241.8298    1202.6083    992.76466    16.057262    276.53191   -394.65029    291.69338 
  237000       237000    292.45033    101167.02    1607.6117     0.867463   -1060.4418    2207.7073    1209.8231    2536.7919    1076.2201   -72.269052   -293.12398   -203.10692    292.45033 
  238000       238000    290.71081    101167.02    442.83323     0.867463   -1110.8099    2137.8999    185.55414    778.10881    364.83674   -362.31735   -927.65062   -157.62896    290.71081 
  239000       239000    290.39042    101167.02     767.6986     0.867463    -1070.267    2174.8624    500.05325    813.21861    989.82395   -136.90626    311.20314   -123.54008    290.39042 
  240000       240000    292.88478    101167.02    1775.0174     0.867463    -1035.261    2237.7432    1803.3721    1544.9205    1976.7595   -38.051173    152.54428   -363.98729    292.88478 
  241000       241000    292.01213    101167.02    913.42431     0.867463   -1136.2202    2127.0319    446.49426    1192.4214    1101.3573   -637.03002    669.50874    291.38894    292.01213 
  242000       242000     292.2853    101167.02    1316.4515     0.867463   -1032.9402    2233.3647    1817.2852    1325.3234    806.74575   -365.49029   -344.68872    524.71753     292.2853 
  243000       243000    296.68913    101167.02    1586.4186     0.867463   -1052.3717    2263.1462     2098.819    1312.1664    1348.2704    55.565845   -435.73606   -117.54092    296.68913 
  244000       244000    293.52479    101167.02    649.78724     0.867463    -1116.835    2163.3212    421.55418    573.05749    954.75005   -802.39441    427.45554   -340.21975    293.52479 
  245000       245000     295.1336    101167.02    570.50635     0.867463   -1094.6327    2203.5021    1071.3698    145.26303    494.88619   -145.83178    408.30106    406.77408     295.1336 
  246000       246000    295.18287    101167.02    1261.5521     0.867463   -1090.4295    2208.2558    213.65329     1376.785    2194.2181   -430.49108   -789.69409   -362.42304    295.18287 
  247000       247000    289.83383    101167.02    1660.1808     0.867463   -1095.6858    2143.2238    642.68739    2830.1585    1507.6965   -1017.3878    520.12193     19.30687    289.83383 
  248000       248000    288.47506    101167.02    1116.2095     0.867463   -1103.5473    2120.1779    812.42316    1513.5174    1022.6879   -275.05489   -334.48882    752.29644    288.47506 
  249000       249000     295.1739    101167.02    1622.2383     0.867463   -1066.2641     2232.321     1492.977    2102.3033    1271.4346   -263.41848     396.7689    355.52753     295.1739 
  250000       250000    291.43063    101167.02    1401.5618     0.867463   -1079.2301    2177.5237    1202.3734    1922.5771    1079.7348   -476.21191   -451.42345   -630.40447    291.43063 
  251000       251000    294.39345    101167.02    2052.2987     0.867463   -1095.9381    2193.9254    2511.1435    1775.8281    1869.9245    194.18774   -392.08839   -124.88942    294.39345 
  252000       252000    301.72838    101167.02    812.71212     0.867463   -1098.0279     2273.804     959.7158    566.80161    911.61894   -506.75827    96.036809   -436.65888    301.72838 
  253000       253000    287.58604    101167.02    1284.4079     0.867463   -1128.1829    2085.6074    1538.0828    737.23116    1577.9096    460.64654    621.84511    -214.2907    287.58604 
  254000       254000    288.61298    101167.02    843.78787     0.867463   -1054.2985     2170.968    821.52171    665.52234    1044.3196   -206.49124   -994.80281    363.36087    288.61298 
  255000       255000    292.06156    101167.02    655.76951     0.867463   -983.55638    2280.2482    -55.50605    601.14621    1421.6684   -329.80137    497.04056    268.28938    292.06156 
  256000       256000    292.35745    101167.02    692.61873     0.867463    -1160.931    2106.1801    1202.1454    49.720848       825.99    -1057.281    70.207417    38.281459    292.35745 
  257000       257000    293.10294    101167.02    1693.2134     0.867463   -1141.0845    2134.3575    2293.2079    1418.7477    1367.6846    414.27459    87.318972   -280.49892    293.10294 
  258000       258000    284.85232    101167.02    1149.9857     0.867463   -1007.6516    2175.5893    432.72801    1592.6235    1424.6056    67.561912   -202.86372    313.12613    284.85232 
  259000       259000     292.0646    101167.02    1511.1457     0.867463   -1106.3157    2157.5228    1429.2088    1478.5624     1625.666   -954.51668   -156.61192   -453.22845     292.0646 
  260000       260000    293.41703    101167.02    1562.6832     0.867463   -1050.6658    2228.2862    1213.8194    2331.4004    1142.8297   -634.93437    319.63968    182.79005    293.41703 
  261000       261000    292.26939    101167.02    1128.1911     0.867463    -1007.517      2258.61    535.52345    1226.5616    1622.4883   -667.11054    502.72254    236.23309    292.26939 
  262000       262000    291.24326    101167.02    610.06726     0.867463   -1065.1388    2189.5212    1168.8551    189.96315    471.38349    -400.8867   -93.611771     -133.538    291.24326 
  263000       263000    287.00426    101167.02    426.96204     0.867463   -1057.3517    2149.9373    612.39361    344.56187    323.93065   -799.98035   -485.60431   -235.93442    287.00426 
  264000       264000    290.90432    101167.02    1311.0823     0.867463   -1028.7807    2222.0916    1949.2411    817.65158    1166.3541   -440.13833    803.37022     111.1346    290.90432 
  265000       265000    294.34083    101167.02    86.220679     0.867463   -1114.2775    2174.9979    318.53488     72.08383   -131.95668   -557.26047     272.3539     234.1521    294.34083 
  266000       266000    296.85056    101167.02    986.29603     0.867463   -1117.4054    2199.9164    1595.8261    648.14097    714.92102   -492.95418   -416.02706    398.52552    296.85056 
  267000       267000    286.25215    101167.02     924.8957     0.867463   -1118.0442    2080.8398     858.0137    857.91415    1058.7592   -1119.9914    158.07083   -74.143184    286.25215 
  268000       268000    295.14076    101167.02    336.12934     0.867463   -1002.5124    2295.7024   -577.65106    881.28635    704.75275   -139.40483    175.68571   -328.92653    295.14076 
  269000       269000    289.94289    101167.02    1013.1517     0.867463   -1158.5637    2081.5646    1943.6997    617.00733    478.74808   -155.01329    843.09914   -163.74321    289.94289 
  270000       270000    298.38428    101167.02    1015.9086     0.867463   -1069.8655    2264.5958    864.84757    484.99367    1697.8846    -459.0452    167.48703    311.96181    298.38428 
  271000       271000    297.08784    101167.02    776.30834     0.867463   -1114.0012    2205.9724   -269.26646    1350.4917    1247.6997    -776.6644   -146.58205   -311.58439    297.08784 
  272000       272000    292.35214    101167.02    1043.0678     0.867463    -1122.221    2144.8308    1016.7874    806.28839    1306.1277   -742.14447    416.57431    44.731427    292.35214 
  273000       273000    294.62752    101167.02     781.5439     0.867463   -986.00778    2306.4715    1194.3884    138.94375    1011.2995   -786.89405   -306.46532    362.11208    294.62752 
  274000       274000    292.05961    101167.02    1032.3065     0.867463   -1056.8256    2206.9571    682.20802     1279.787    1134.9246   -259.92887    450.54781   -144.76955    292.05961 
  275000       275000    292.26171    101167.02    1295.6256     0.867463   -1082.9467    2183.0945    1791.4333    1352.1055    743.33785   -392.80605   -125.84375    221.39854    292.26171 
  276000       276000    299.68549    101167.02    2168.7621     0.867463   -1049.1349    2299.8675    1870.2801    2321.6444    2314.3617    219.13934    231.01162   -181.38612    299.68549 
  277000       277000    287.87938    101167.02     931.2494     0.867463   -1078.3344    2138.7341    1531.9929    847.51227    414.24308   -711.16758   -344.66448    307.70721    287.87938 
  278000       278000     291.8396    101167.02    115.10859     0.867463   -997.32128    2264.0028    277.42819    512.57197    -444.6744   -1399.4046   -443.71967   -210.58974     291.8396 
  279000       279000    289.94417    101167.02    958.00487     0.867463   -1025.8329    2214.3098    1890.1702    506.56746    477.27698   -631.99084    74.996494    54.470395    289.94417 
  280000       280000    293.76125    101167.02    1862.6116     0.867463    -1015.508    2267.2907     1757.809    2214.8263    1615.1994    -527.1547    409.98628    30.664327    293.76125 
  281000       281000     290.8915    101167.02    1510.9408     0.867463   -1021.6255    2229.1036    926.31876    2298.8279    1307.6758   -262.67111   -98.687551   -28.531111     290.8915 
  282000       282000    295.28464    101167.02    1666.6557     0.867463   -1092.1386     2207.684    649.72304    2080.5701     2269.674   -695.75205    131.09041   -514.51766    295.28464 
  283000       283000    297.15404    101167.02    793.13987     0.867463    -1083.376    2237.3373      863.309    663.95583    852.15479    814.50818    28.040694    374.08684    297.15404 
  284000       284000    293.89507    101167.02    274.02067     0.867463   -1075.7081    2208.5859    348.90662    632.11807   -158.96268   -720.02685    -458.0096   -223.48023    293.89507 
  285000       285000    294.89759    101167.02    819.93757     0.867463   -1085.5543     2209.943    1145.4144    730.63295     583.7654   -446.33522    649.91619    459.81388    294.89759 
  286000       286000    292.93295    101167.02    1612.5621     0.867463   -1068.5797    2204.9627    1360.4883    902.47368    2574.7243     -719.535   -350.70301    46.060614    292.93295 
  287000       287000    295.97228    101167.02    1401.1227     0.867463   -1008.2475    2299.2595    1564.7891    1100.4158    1538.1631   -336.64281    154.46596    475.96657    295.97228 
  288000       288000    293.84297    101167.02    1740.4293     0.867463   -1065.0834    2218.6285    1463.8362    1286.4046    2471.0471   -731.03768   -183.65735   -717.26528    293.84297 
  289000       289000    296.96897    101167.02    703.84656     0.867463   -1088.2957    2230.3494    504.79918    359.82192    1246.9186   -99.735567   -173.27768    71.923851    296.96897 
  290000       290000    295.42016    101167.02     723.5835     0.867463   -1056.3799    2244.9573    173.96818    181.63065    1815.1517    -461.5689   -634.58326    610.81023    295.42016 
  291000       291000    289.05305    101167.02    794.19141     0.867463   -1043.7466    2186.4377    125.14161    1303.7024    953.73019   -28.274075     -550.955     222.5548    289.05305 
  292000       292000    285.83194    101167.02    1701.6002     0.867463   -1048.0077    2146.1805     2795.409     945.6737     1363.718   -255.62579    9.2723621   -603.79422    285.83194 
  293000       293000    303.80044    101167.02    1772.8543     0.867463   -1039.3222     2355.665    1416.2841    1928.2868    1973.9921     50.34639     -843.372   -191.01956    303.80044 
  294000       294000    295.27868    101167.02    1450.2945     0.867463   -1029.1779    2270.5781    1139.5224    1271.9304    1939.4305   -1222.1219     385.1639   -357.20759    295.27868 
  295000       295000    293.12505    101167.02     1834.063     0.867463    -1070.503    2205.1862    2062.2185    1534.4209    1905.5497    5.2390413    -232.4736   -855.56121    293.12505 
  296000       296000    293.54643    101167.02    355.40998     0.867463   -1019.8743    2260.5238    140.45352     64.86934    860.90707    296.43843   -546.02806   -170.44092    293.54643 
  297000       297000    293.79202    101167.02    1382.5985     0.867463   -1090.1514    2192.9912    1296.7116    1960.1327    890.95122   -1119.6625    143.84158    28.981798    293.79202 
  298000       298000    294.27702    101167.02    1477.0165     0.867463   -1009.8733    2278.6891    1401.7422     912.7603    2116.5472   -59.448772    239.27215   -361.01971    294.27702 
  299000       299000    295.37539    101167.02    1483.5543     0.867463   -1148.6272    2152.2095     1210.302    1230.9051    2009.4559   -137.57821    332.58372   -821.69421    295.37539 
  300000       300000    297.78345    101167.02    1225.8994     0.867463   -1014.0156    2313.7314     629.3043    1259.4118    1788.9822    194.40798   -546.68892   -430.35136    297.78345 
  301000       301000    292.63869    101167.02    1061.5967     0.867463   -1111.1894    2159.0647    916.17559    1483.6777    784.93693    613.27513   -193.97991   -129.39703    292.63869 
  302000       302000     295.3103    101167.02    1044.7994     0.867463   -1033.7701    2266.3392    1374.6419    71.824254     1687.932     83.15326    231.25581    -420.4521     295.3103 
  303000       303000    297.04073    101167.02    879.11299     0.867463   -1145.6817    2173.7654    758.00019    1036.9793    842.35948   -331.36656    286.81224   -1100.9118    297.04073 
  304000       304000    295.03888    101167.02    1138.0786     0.867463   -1050.0146    2247.0617    851.29563     964.8816    1598.0586   -1019.7079    99.959431   -155.87636    295.03888 
  305000       305000    300.91912    101167.02    1712.4569     0.867463   -1121.8069    2240.9814    1335.2906    2421.9788    1380.1014    330.99378   -329.92281   -503.57882    300.91912 
  306000       306000    295.65029    101167.02    1602.4862     0.867463   -1056.0403    2247.8685    1632.9908    1148.2751    2026.1926   -442.61253    311.36363   -423.77365    295.65029 
  307000       307000    292.59245    101167.02    1596.9774     0.867463   -1006.4616    2263.2757    1221.6982    1444.3797    2124.8543   -797.80343   -217.74017   -597.80116    292.59245 
  308000       308000    298.19499    101167.02    1203.5708     0.867463   -1046.5703    2285.7757    1407.5907     1022.376    1180.7456    78.662825    3.8634541   -830.53383    298.19499 
  309000       309000    287.77182    101167.02     732.9001     0.867463   -1121.9721    2093.8943    -592.1118    1536.7212    1254.0909   -243.12005    187.60946   -518.46584    287.77182 
  310000       310000    293.52262    101167.02     1063.892     0.867463   -997.14924    2282.9827     576.5339    1312.5394    1302.6028   -881.36411   -507.94032   -436.11652    293.52262 
  311000       311000    290.52554    101167.02    1654.6445     0.867463   -1090.0468    2156.5925    1047.7898    1957.7339    1958.4099   -814.11632   -502.66266    375.46687    290.52554 
  312000       312000    293.87054    101167.02    409.27527     0.867463   -1028.5855    2255.4346    656.61832     726.7423   -155.53483   -301.88798   -57.709584    258.63157    293.87054 
  313000       313000    288.28012    101167.02    294.24501     0.867463   -1053.2525    2168.2942    474.19494    742.20895   -333.66886   -928.92884     -293.981    487.49687    288.28012 
  314000       314000     294.2408    101167.02    1571.5366     0.867463   -1174.2437    2113.9139    2033.3995    1838.1705    843.03992   -117.79536    245.55085   -351.42837     294.2408 
  315000       315000    302.34501    101167.02    1190.9128     0.867463   -967.90702    2410.8157    943.73309    1430.2234     1198.782   -588.72576   -346.32296   -347.48326    302.34501 
  316000       316000    294.26773    101167.02      931.277     0.867463    -1153.653    2134.8056    1253.7673    651.37692    888.68679   -583.24715   -372.46878    -805.9824    294.26773 
  317000       317000    295.03806    101167.02    1556.0174     0.867463   -1161.5663    2135.5008    1050.2423    1663.7754    1954.0346   -199.10024   -424.55302   -574.02462    295.03806 
  318000       318000    294.34719    101167.02    1386.1558     0.867463   -1085.6495    2203.6971    1378.9764    1842.0349    937.45612    -284.2026   -893.03321   -108.73321    294.34719 
  319000       319000     296.9141    101167.02    1090.7751     0.867463   -1097.0706    2220.9614    889.49347    1209.7083    1173.1236    495.13996    689.04538   -826.86091     296.9141 
  320000       320000    288.04047    101167.02    569.61033     0.867463    -1025.723    2193.1456    957.66245    584.19183    166.97671    181.95729    179.71551   -339.74806    288.04047 
  321000       321000     286.9661    101167.02    1140.8466     0.867463   -995.56897    2211.2935   -30.651461    1223.7803     2229.411   -561.03597    116.95827   -102.83021     286.9661 
  322000       322000    295.52867    101167.02    1642.4363     0.867463   -1109.2292    2193.3205    2267.3056    1702.1659    957.83747    4.8408122     685.4888   -225.96316    295.52867 
  323000       323000    290.60392    101167.02    978.38292     0.867463   -1063.6826    2183.8328    945.95081     1143.683    845.51494   -396.78848    -369.5104    -275.5693    290.60392 
  324000       324000    296.89442    101167.02    1156.6048     0.867463   -1009.3168    2308.4952    1265.2422    765.09109     1439.481   -122.81676     839.6294    8.7747837    296.89442 
  325000       325000    289.84701    101167.02    2135.8067     0.867463   -1042.2152    2196.8416     2243.153    2267.0685    1897.1986    21.556466    488.75452   -136.58782    289.84701 
  326000       326000    295.23262    101167.02    1745.0654     0.867463   -1087.6792    2211.5621    2792.5028     1127.017    1315.6765    -437.8329   -164.72803   -1051.7798    295.23262 
  327000       327000    288.78019    101167.02    636.19207     0.867463   -1038.7412    2188.3939     989.8442    931.35846   -12.626455   -628.21237     31.57778   -529.25796    288.78019 
  328000       328000    292.62676    101167.02    376.94868     0.867463   -1095.0901    2175.0306    760.12381     164.2562    206.46604   -93.649894    194.61244   -382.55911    292.62676 
  329000       329000    294.26585    101167.02    1713.7025     0.867463   -1076.4261    2212.0115    1186.2894    1678.3257    2276.4924    214.21501    -2.442785   -328.24835    294.26585 
  330000       330000    296.20311    101167.02     1301.001     0.867463   -1036.0602    2274.0265    1909.1786    1695.6156     298.2088    -74.90723    895.06141   -623.93603    296.20311 
  331000       331000    288.99319    101167.02     992.2724     0.867463   -1081.1537    2148.3616    382.39628    493.90577    2100.5152   -180.24259   -11.024919   -94.486533    288.99319 
  332000       332000    296.12818    101167.02    1130.8256     0.867463   -1103.3879    2205.8614    821.16412    1444.6123    1126.7004    82.084416    131.11164    56.544557    296.12818 
  333000       333000    294.64582    101167.02    733.80584     0.867463   -1095.3007    2197.3831    352.94967    689.23319    1159.2347   -274.22172   -480.27442   -302.25086    294.64582 
  334000       334000    291.63678    101167.02    716.22176     0.867463   -1027.0277    2232.0299    212.70778    958.01734    977.94016   -1138.2386   -422.39877   -766.27181    291.63678 
  335000       335000    289.66586    101167.02    516.07125     0.867463   -1073.8906    2163.1419    75.647898    1023.7678    448.79799   -221.35244   -283.14479   -21.592149    289.66586 
  336000       336000     289.9291    101167.02     1361.162     0.867463    -1011.743    2228.2312    1222.7719    962.31306    1898.4011    -744.1901    128.65892   -32.779365     289.9291 
  337000       337000    292.26581    101167.02    929.76423     0.867463   -1012.1765    2253.9105    1463.5514    841.02465    484.71664   -524.46259   -78.093295   -37.202707    292.26581 
  338000       338000    290.68479    101167.02    1871.1066     0.867463   -1080.7084    2167.7107    1833.5089    2008.6192    1771.1916    577.03901     490.9027    309.88124    290.68479 
  339000       339000    295.11993    101167.02    1303.0061     0.867463   -981.67805    2316.3039    1217.3613    1782.4765    909.18052   -541.56623   -288.99796   -234.27277    295.11993 
  340000       340000    295.40618    101167.02    1666.0378     0.867463   -1048.7838     2252.397    1728.9553    971.77403    2297.3841   -974.09496   -573.17238   -11.209174    295.40618 
  341000       341000    299.82965    101167.02    992.90374     0.867463   -1034.1055    2316.5079    1922.0617    432.47713     624.1724   -663.65181    214.75499   -22.123401    299.82965 
  342000       342000    290.65482    101167.02    1429.1504     0.867463   -995.32572    2252.7585    1352.9112    2198.8126    735.72744   -413.69825     535.6921    -371.9092    290.65482 
  343000       343000    293.58559    101167.02    678.34263     0.867463   -1024.7459    2256.0897    467.59392    1560.6801    6.7539156   -871.59871    351.26331   -518.59028    293.58559 
  344000       344000    288.85658    101167.02    913.13402     0.867463   -1018.6974    2209.2913    187.82585    1266.7725    1284.8037   -1223.4888    2.0819242   -322.89718    288.85658 
  345000       345000    292.69596    101167.02    1135.6957     0.867463   -1017.4446    2253.4495    788.36373    824.48763    1794.2359    162.18313    219.06014   -48.342827    292.69596 
  346000       346000    289.15051    101167.02    1372.5164     0.867463   -1027.9421    2203.3313    806.23751     1777.491    1533.8208   -746.82663    140.72355    156.08996    289.15051 
  347000       347000    295.16321    101167.02    1211.0484     0.867463   -976.81402    2321.6516    1571.5593    1145.3802     916.2056   -410.57773    482.64953   -794.93186    295.16321 
  348000       348000    282.29715    101167.02    1404.6778     0.867463   -1125.3774    2029.3093    1349.1288    1560.6289    1304.2758   -394.11486    384.86388    197.33913    282.29715 
  349000       349000    300.83311    101167.02     973.6636     0.867463   -1009.2388    2352.5883    870.94191    1269.8197    780.22919   -196.86906     382.0157   -602.60309    300.83311 
  350000       350000    288.62126    101167.02    696.87237     0.867463   -1111.5334    2113.8256    691.86549     679.1028    719.64883    -104.1348   -532.32994   -740.38628    288.62126 
  351000       351000    296.18476    101167.02    805.71395     0.867463   -993.67849     2316.203    1048.6338    537.00134    831.50671   -65.585211   -310.58768   -63.485051    296.18476 
  352000       352000    289.95553    101167.02    1154.5292     0.867463     -1119.72    2120.5496    913.68732    849.93848    1699.9618    3.7440228   -343.80705   -562.97005    289.95553 
  353000       353000    297.96708    101167.02    1281.0824     0.867463   -987.25565    2342.5434    1753.2926    1394.2736     695.6808   -725.06762    -147.1274    406.73897    297.96708 
  354000       354000    288.55932    101167.02    260.18547     0.867463   -1067.0941    2157.5726    873.25531   -297.07023    204.37134   -546.16197    -176.7023    681.29309    288.55932 
  355000       355000    295.84751    101167.02    1186.6053     0.867463   -1046.1129    2259.9998    1130.8946    1064.7295    1364.1917   -925.05447   -206.23767    559.59488    295.84751 
  356000       356000    298.79395    101167.02    1109.5399     0.867463   -1046.2207    2292.8187    643.36862    1458.7826    1226.4684    11.979483    460.60665   -269.30642    298.79395 
  357000       357000    296.23436    101167.02    1047.5026     0.867463   -1219.8511    2090.5847    410.49269    1904.0133    828.00173   -1130.3637   -75.704608   -218.04045    296.23436 
  358000       358000    294.85387    101167.02    1708.4316     0.867463   -1076.8557    2218.1532    1549.8564    1928.9262    1646.5122   -437.22947    412.11131    41.289948    294.85387 
  359000       359000    300.87782    101167.02    1155.0482     0.867463   -1090.9981    2271.3286    1377.6284    1460.0125    627.50373   -795.85901    245.29066    205.58806    300.87782 
  360000       360000    288.73427    101167.02    1723.1629     0.867463   -1060.5194    2166.1025     1088.964    1866.9161    2213.6086   -656.01453   -131.81921    200.42539    288.73427 
  361000       361000    294.97149    101167.02    1883.0475     0.867463   -1055.7161    2240.6071    1827.9557     1999.458    1821.7289   -914.41656    -717.1166   -359.51312    294.97149 
  362000       362000    295.67761    101167.02    1330.9342     0.867463   -1134.9712    2169.2429    1019.3122    2083.8771    889.61324   -70.680289   -710.73458    171.70784    295.67761 
  363000       363000    293.95787    101167.02    1077.5388     0.867463   -1068.3766    2216.6193     729.6613    731.87137    1771.0837    225.06775   -304.26309   -600.86768    293.95787 
  364000       364000    286.18166    101167.02    1404.2533     0.867463   -1090.4084     2107.688    1723.3379    814.10153    1675.3204    -405.1036   -390.50992    346.43657    286.18166 
  365000       365000    295.98656    101167.02    285.87471     0.867463    -1052.828    2254.8386    229.44938    -166.6158    794.79055   -487.63694     274.7768    -572.5645    295.98656 
  366000       366000    297.07076    101167.02    980.03099     0.867463   -1096.4501    2223.3324     1856.328    1006.6249    77.140083   -934.68661   -160.64632    11.236933    297.07076 
  367000       367000    293.00881    101167.02    961.68301     0.867463   -1052.0737    2222.3164     423.6214    1089.1266    1372.3011   -1139.0036   -475.62671    286.89301    293.00881 
  368000       368000    290.59234    101167.02    780.94477     0.867463   -1022.8013    2224.5847    1145.4059    474.51468    722.91373   -990.19265    933.01262    43.462383    290.59234 
  369000       369000    291.15979    101167.02    415.20494     0.867463    -1054.226    2199.5012    399.73921      1121.37   -275.49438   -844.04357   -681.51098    55.244507    291.15979 
  370000       370000    289.75928    101167.02    1507.7662     0.867463   -1030.0677    2208.0088    1297.8696    1595.6609    1629.7683   -565.12529   -399.53838   -18.463917    289.75928 
  371000       371000    294.48446    101167.02    895.50884     0.867463   -999.45998    2291.4206    1951.7737   -306.67269    1041.4255   -101.82325   -299.59658   -237.28018    294.48446 
  372000       372000    287.99375    101167.02    1743.0526     0.867463   -1056.8897    2161.4568    955.06846    2442.7501    1831.3391   -722.38168   -687.53554     124.4465    287.99375 
  373000       373000    292.68568    101167.02    1765.7085     0.867463   -980.92536    2289.8537     1483.984    1177.8172    2635.3244    270.35499   -832.55787   -181.05693    292.68568 
  374000       374000    287.88994    101167.02    1977.6006     0.867463   -990.07805    2227.1083    1834.7711    1636.5186     2461.512   -611.79137   -136.69763    -436.0477    287.88994 
  375000       375000    292.80702    101167.02    1451.3758     0.867463   -1100.0028    2172.1324    1833.0677    671.21409    1849.8455   -404.16903    422.33988    333.18587    292.80702 
  376000       376000    286.64944    101167.02    1546.8657     0.867463   -1052.4097    2150.9141    591.29856    2480.4753    1568.8233   -889.11927    356.13209   -228.71349    286.64944 
  377000       377000    297.66919    101167.02   -10.836713     0.867463   -1034.6627    2291.8074   -8.1515156    1053.5639   -1077.9226   -763.27059    205.11067   -142.63258    297.66919 
  378000       378000    291.32661    101167.02    646.24479     0.867463   -1104.2795    2151.3119    316.20381    256.16035    1366.3702   -669.67401   -442.93548   -90.066733    291.32661 
  379000       379000    289.03352    101167.02    651.25529     0.867463   -990.56633    2239.3997    1165.6479    76.640938    711.47704   -975.51378   -864.35032   -50.066862    289.03352 
  380000       380000    295.70485    101167.02    1257.6303     0.867463    -1014.353    2290.1656    1491.7073    1335.1182    946.06552   -44.746536     449.4529      6.09334    295.70485 
  381000       381000    295.25185    101167.02    1251.2869     0.867463   -1077.2117    2222.2445    782.84119    1104.4954    1866.5241   -524.54989   -87.111493   -77.407828    295.25185 
  382000       382000    295.94152    101167.02    1281.8453     0.867463   -1060.7082    2246.4551     862.7915    1090.2374    1892.5071    252.38118   -63.482811    151.19643    295.94152 
  383000       383000    298.20678    101167.02    792.79742     0.867463   -1112.5886    2219.8891   -445.61356    1631.7192    1192.2867   -566.93427    695.94063    371.45108    298.20678 
  384000       384000    294.10391    101167.02    1269.0846     0.867463   -1048.1796    2238.4483    498.29144    2006.5856    1302.3766   -269.35605    607.77913   -48.907858    294.10391 
  385000       385000    287.71456    101167.02    495.57245     0.867463   -1035.4304    2179.7962     162.3486    562.79218    761.57656   -389.17362   -468.36935    124.75741    287.71456 
  386000       386000    286.62098    101167.02    1304.4641     0.867463   -1044.8527     2158.153    798.80847    1355.6526    1758.9311   -406.26998    116.82088   -248.48941    286.62098 
  387000       387000    299.83211    101167.02    1709.7532     0.867463   -1022.4695    2328.1714    2809.9026    1192.4263    1126.9308   -751.37053   -492.16283   -559.88455    299.83211 
  388000       388000    295.12578    101167.02     1466.305     0.867463   -1106.1507    2191.8967    1595.4422    1720.6046    1082.8682   -266.99487   -284.64063    43.488255    295.12578 
  389000       389000    287.66887    101167.02     1522.621     0.867463   -1076.2207    2138.4953    1585.0327    1304.0441    1678.7862   -259.84111   -215.04944    -995.3767    287.66887 
  390000       390000    302.44252    101167.02    1348.0123     0.867463    -1047.048    2332.7644    2539.5236    959.95702    544.55627   -753.78309    201.16734    651.21916    302.44252 
  391000       391000    294.69379    101167.02    883.71767     0.867463   -1021.7406    2271.4793    65.430209    682.31148    1903.4113   -103.48975   -277.24894    583.36489    294.69379 
  392000       392000    288.98861    101167.02    1572.9408     0.867463   -1083.3394    2146.1247    1461.9693    1280.8842    1975.9688   -812.37573   -365.91293      43.2687    288.98861 
  393000       393000    292.75333    101167.02    1238.1933     0.867463   -973.33145    2298.2037    864.53652    1247.3277    1602.7156   -360.79419    69.712333    157.96493    292.75333 
  394000       394000    291.62592    101167.02    470.45758     0.867463   -1096.2452    2162.6911    890.38487    15.003501    505.98439   -830.42097   -370.39752    427.32391    291.62592 
  395000       395000    294.42524    101167.02    1161.9472     0.867463    -1018.109    2272.1098    831.12188    1641.2472    1013.4725     302.4079     558.8152   -441.81397    294.42524 
  396000       396000    289.07031    101167.02    985.93302     0.867463   -1124.6893    2105.6878    1535.5812    383.90681     1038.311    118.98629   -422.39015    485.14946    289.07031 
  397000       397000    294.47907    101167.02    1457.3431     0.867463   -981.05327    2309.7671    1404.7257      2444.87    522.43357   -799.13263    143.11689   -2.0156259    294.47907 
  398000       398000    282.71155    101167.02     981.7467     0.867463   -1016.6394    2142.6783    183.18574    1356.8968    1405.1575    32.102907    72.081771    354.32848    282.71155 
  399000       399000    294.70099    101167.02     1853.423     0.867463   -966.38952    2326.9108    2121.2318    1524.8898    1914.1474   -313.86728    -207.2765   -155.82696    294.70099 
  400000       400000    291.45537    101167.02      688.631     0.867463   -1066.5673     2190.463    949.21628    592.40256    524.27415   -15.998963   -247.13917    392.04667    291.45537 
  401000       401000    288.09265    101167.02    1018.2755     0.867463   -1072.4665    2146.9853    1253.9972    648.96695    1151.8624   -713.38572    18.132672    177.29516    288.09265 
  402000       402000    296.41639    101167.02    2034.5125     0.867463   -982.29127    2330.1787    1731.5817    1689.1062    2682.8496   -19.243327    35.725581   -179.71246    296.41639 
  403000       403000    290.76946    101167.02    1076.2633     0.867463   -1071.4307    2177.9345    602.07316    1951.3602    675.35642   -552.03863    -190.9647    89.299615    290.76946 
  404000       404000    292.56815    101167.02     691.7069     0.867463   -983.41649    2286.0492    527.29459    585.65015    962.17598   -289.49927    131.19702   -489.45925    292.56815 
  405000       405000    293.95652    101167.02    1520.6266     0.867463   -1122.5154    2162.4654    208.18524    2497.4625     1856.232   -1108.4222    18.052374     690.6514    293.95652 
  406000       406000    297.88278    101167.02    1042.3437     0.867463   -1090.8816    2237.9753    332.11875    684.98645    2109.9258   -751.34035    665.24801    231.27822    297.88278 
  407000       407000    296.62719    101167.02    1067.6329     0.867463   -1099.0783    2215.7475    310.15237    1218.9911    1673.7553   -55.081657    801.90675    189.03258    296.62719 
  408000       408000    294.55341    101167.02    1289.2547     0.867463   -1107.5611      2184.09    1374.1697    1631.9436    861.65083   -1463.9405    588.65655    -528.0955    294.55341 
  409000       409000    295.54281    101167.02    2196.6342     0.867463   -1006.9022    2295.8054    1772.3352    2534.7562    2282.8111   -168.98259    119.61578    336.15923    295.54281 
  410000       410000    289.38996    101167.02     1002.998     0.867463   -1074.2391    2159.7101    1970.3852    438.71145    599.89731   -388.39126   -305.19385   -235.45939    289.38996 
  411000       411000    297.30953    101167.02    2001.5328     0.867463   -1068.9998    2253.4511    1071.5658    2197.4486    2735.5842   -498.74413     329.0858    259.47912    297.30953 
[...]
100080000   1.0008e+08     293.6148    101167.02    1642.5504     0.867463   -1119.7603    2161.4018    1297.0468    1920.7176    1709.8869    101.87018     8.512083    182.43684    293.62529 
100090000   1.0009e+08    292.31384    101167.02    1323.2986     0.867463   -1009.9898     2256.634    1762.9731    1196.7914    1010.1312   -830.62766    23.379773    27.128079    292.38208 
100100000    1.001e+08    299.94757    101167.02    1077.7686     0.867463   -1099.6316    2252.2995    1537.1731    704.96412    991.16859    209.99138    -204.6288    -117.8724    299.95847 
100110000   1.0011e+08    291.79885    101167.02     2427.853     0.867463   -1012.9221    2247.9466    2922.2032     2662.309    1699.0467    249.43719    100.81232    343.92413    291.82348 
100120000   1.0012e+08    290.92397    101167.02    1703.3457     0.867463   -1011.6165    2239.4754    1630.7659    1884.1963     1595.075   -51.620964     30.34848   -97.367782     290.9766 
100130000   1.0013e+08    297.56303    101167.02     1074.551     0.867463    -960.5347    2364.7491    362.87844    1441.2819    1419.4926   -653.43086    483.01136   -752.99514    297.58339 
100140000   1.0014e+08     293.6913    101167.02    945.36493     0.867463   -1019.1558    2262.8612    593.36385    936.99302    1305.7379   -714.75432    215.88594    844.72542    293.73836 
100150000   1.0015e+08    292.14305    101167.02    473.48489     0.867463   -951.05243    2313.6627    654.91518    852.31027   -86.770775   -176.60127   -612.43314   -283.10612     292.1315 
100160000   1.0016e+08    285.99579    101167.02    2001.2223     0.867463     -1021.64    2174.3793     1403.343    2746.6281    1853.6958   -137.70462    16.791309    68.015501    286.00402 
100170000   1.0017e+08    292.61978    101167.02     1832.167     0.867463   -985.80895    2284.2337    1938.8143    1775.3461    1782.3404   -1197.1842    57.058343   -689.59399    292.64924 
100180000   1.0018e+08    290.95283    101167.02    713.65389     0.867463   -1039.6177    2211.7967     298.9974    897.28173    944.68254   -289.13733   -333.76095   -297.35982    290.96739 
100190000   1.0019e+08    302.48816    101167.02     1007.544     0.867463   -980.57455    2399.7479    909.21474    641.11044    1472.3069   -950.09554    196.69928   -101.10301    302.47988 
100200000    1.002e+08    286.26265    101167.02     1014.492     0.867463   -967.87875    2231.1226    1090.7575    1046.8855    905.83306    46.316751    645.07522    442.30562    286.25844 
100210000   1.0021e+08    290.22572    101167.02    1536.4113     0.867463   -1059.3706    2183.9183    2049.2475    1252.9055    1307.0809    173.06754    177.44937     -154.596    290.22756 
100220000   1.0022e+08    288.12198    101167.02    1504.5339     0.867463   -1034.5955    2185.1841    1293.7861    1825.7131    1394.1026   -179.93489   -64.701188   -99.717504    288.15543 
100230000   1.0023e+08    299.39245    101167.02    688.26398     0.867463   -1022.8736    2322.8541    1045.0077    -316.8989    1336.6831   -439.58162    -238.9212   -218.99543    299.40878 
100240000   1.0024e+08     291.3305    101167.02    1591.1964     0.867463    -946.7966    2308.8383    943.23375    1830.6317    1999.7239   -203.52304    372.10013    407.89588    291.34989 
100250000   1.0025e+08    297.13933    101167.02    1797.6199     0.867463   -998.50117    2322.0477      767.004    2371.2998    2254.5558   -1146.2539   -45.408171     804.3949    297.15725 
100260000   1.0026e+08    292.01492    101167.02    1624.9631     0.867463   -965.27265    2298.0107    1625.1987    1395.2377    1854.4528   -703.02365    218.37899    -86.46991    292.01883 
100270000   1.0027e+08    298.58106    101167.02    600.58055     0.867463   -1091.5865    2245.0739   -166.14065    992.28074    975.60156   -676.15189   -426.25968    591.73297    298.60351 
100280000   1.0028e+08    300.76664    101167.02    1083.8376     0.867463   -966.94174    2394.1426    1001.2236    1117.4892    1132.8002    -475.0741    359.75647    465.08602    300.75402 
100290000   1.0029e+08    295.54656    101167.02    1727.9146     0.867463   -1021.3948    2281.3548    2372.3767    2000.5889    810.77815   -138.34728   -237.36204    -10.60235    295.57618 
100300000    1.003e+08    291.67109    101167.02     631.4835     0.867463   -1159.9259    2099.5151    295.50243    862.97629    735.97179   -953.34519    630.95153    25.699414    291.64703 
100310000   1.0031e+08    291.57276    101167.02    1228.9621     0.867463    -932.4548    2325.8874    661.63972    1932.6798    1092.5669    -623.2165   -567.63222    119.96595    291.59482 
100320000   1.0032e+08    290.09262    101167.02    978.08155     0.867463    -908.5781    2333.2235    937.41829    1059.8975    936.92886   -522.80931    230.67095   -912.51154    290.12323 
100330000   1.0033e+08    294.71686    101167.02    1026.5547     0.867463   -977.68858     2315.789    881.45618    1003.1629     1195.045   -820.93196     -501.091    840.09725    294.70335 
100340000   1.0034e+08    290.74864    101167.02    1609.8961     0.867463   -1012.1867    2236.9459    2119.0998    1532.9584    1177.6302   -534.71641   -2.0775964   -429.30006    290.76644 
100350000   1.0035e+08    286.42554    101167.02    1142.8829     0.867463   -991.55243    2209.2693    1535.9779    1568.5208    324.15008   -194.11207   -264.78419    131.45608    286.40373 
100360000   1.0036e+08    294.67395    101167.02    1123.2594     0.867463   -955.23314     2337.765    780.19572    1187.2576    1402.3247   -665.56016    259.66799     199.2488     294.6443 
100370000   1.0037e+08    292.08755    101167.02     1617.752     0.867463   -1041.9109    2222.1841     1132.356    1413.0875    2307.8126   -320.33968   -81.433718   -468.90735    292.13314 
100380000   1.0038e+08    291.91734    101167.02    1712.3084     0.867463   -1053.5565    2208.6364    2181.2387    1415.7489    1539.9376    388.83151    14.258894    86.007823     291.9073 
100390000   1.0039e+08     292.5347    101167.02    2076.1938     0.867463   -1003.7216    2265.3703    1718.7619    1993.1937    2516.6259    567.12141   -57.780141   -773.48685    292.56958 
100400000    1.004e+08    287.66531    101167.02    1535.8718     0.867463   -998.18977    2216.4864    886.05644    1786.4262    1935.1327    -165.0855   -435.64053    910.41138    287.70133 
100410000   1.0041e+08    289.18204    101167.02    838.60478     0.867463   -1068.2724    2163.3534    832.89424    915.72784    767.19226    108.84764     43.28341    -611.5805    289.20074 
100420000   1.0042e+08    289.79241    101167.02    1090.0807     0.867463   -1029.8045    2208.6422    831.84348    1242.2594    1196.1393    479.45536   -61.496538    536.83212    289.81347 
100430000   1.0043e+08    297.09246    101167.02    1414.0818     0.867463   -1005.7985    2314.2266    1417.8805    1438.0018    1386.3632    -170.5198    -79.99893    270.80941    297.10749 
100440000   1.0044e+08    291.16958    101167.02     2266.293     0.867463   -1034.7588    2219.0778    1769.9953    2657.7823    2371.1014   -1082.4728    725.75688    217.26097    291.20696 
100450000   1.0045e+08    289.41485    101167.02    1144.7338     0.867463   -1052.3209    2181.9065    530.88742    1277.0135    1626.3005   -869.26817   -134.89099    301.42724    289.44215 
100460000   1.0046e+08    298.09827    101167.02    1315.7977     0.867463   -1066.5297    2264.7353    438.74671    2050.1585    1458.4879   -1103.0569   -198.55411    47.420227    298.14056 
100470000   1.0047e+08    297.77742    101167.02    1635.4394     0.867463   -1071.5944    2256.0852    979.94553    1537.2865    2389.0862   -744.43747    239.55367   -260.62944    297.85438 
100480000   1.0048e+08    292.84657    101167.02     925.7783     0.867463   -1012.1078    2260.4692    243.96406    1595.2057     938.1652   -559.82896     314.9668   -70.356404    292.87231 
100490000   1.0049e+08    294.96876    101167.02    1829.5163     0.867463   -1043.5972    2252.6955    1904.8543    2031.5732    1552.1213   -594.86522    5.8765694   -225.58025    294.96132 
100500000    1.005e+08    293.44258    101167.02    1406.5558     0.867463   -1077.2421    2201.9954    2018.0846    1207.8031    993.77959   -1210.4015    467.65867    806.66602    293.42746 
100510000   1.0051e+08    293.45408    101167.02    1371.3901     0.867463   -1028.2325    2251.1336    1309.1672    842.49831    1962.5048   -777.27302    195.53195   -129.44478    293.45745 
100520000   1.0052e+08    305.10838    101167.02    872.46524     0.867463     -1001.27    2408.3335    1004.8988    20.446259    1592.0507     137.1489   -113.40451   -45.909873    305.11014 
100530000   1.0053e+08     290.2497    101167.02    1695.5102     0.867463   -1082.9146    2160.6423    1298.7847    1600.3056    2187.4403   -870.34526   -136.84988    575.59718    290.27074 
100540000   1.0054e+08    297.38173    101167.02    1488.4102     0.867463   -1048.8111    2274.4466     1314.779    1910.9651    1239.4865     20.81312    440.28599   -516.44182    297.38038 
100550000   1.0055e+08    296.97028    101167.02    1729.9975     0.867463   -1042.2635    2276.3962    2119.7186    1146.4004    1923.8735   -40.778103    140.86279    625.59447    296.99074 
100560000   1.0056e+08    298.39881    101167.02    670.43371     0.867463   -1058.1701    2276.4536   -300.22117    188.44633     2123.076   -867.51578   -613.18723   -7.1094584    298.41369 
100570000   1.0057e+08    294.63818    101167.02    1625.7626     0.867463    -1091.433    2201.1654    1829.8053    1954.5777    1092.9047   -801.06845    218.32794    91.043939    294.67868 
100580000   1.0058e+08    294.28504    101167.02    1500.5134     0.867463    -1011.845     2276.807    1211.6561    2446.5447    843.33951   -94.871007   -141.65945    162.14721    294.32516 
100590000   1.0059e+08     288.2118    101167.02    996.93819     0.867463   -980.00003    2240.7833    1696.3168    972.90409    321.59369   -474.81836    -618.3692    -346.6918     288.2157 
100600000    1.006e+08    293.25437    101167.02    1278.5363     0.867463   -1006.2998    2270.8345    591.68531    1685.8315    1558.0921   -103.54358    641.61115    187.74353    293.27453 
100610000   1.0061e+08    293.15998    101167.02     1719.642     0.867463   -1034.5391    2241.5404    1885.4482    1883.2195    1390.2583   -125.69297    1432.0694   -40.387877    293.18652 
100620000   1.0062e+08    294.48403    101167.02    1160.3036     0.867463   -1056.8415    2234.0342    1185.5114    1339.3268    956.07249    -51.23886    606.19044    50.332419    294.49186 
100630000   1.0063e+08    296.11959    101167.02     1251.268     0.867463    -1122.049    2187.1043    1049.5667    1048.2062    1656.0312   -888.92097   -331.67924   -159.66677    296.11831 
100640000   1.0064e+08    295.79746    101167.02     830.7889     0.867463   -1087.6457    2217.9077    944.41668    594.27844    953.67158     303.9032    782.16737    857.77659    295.80485 
100650000   1.0065e+08    293.12602    101167.02    1062.5769     0.867463   -980.83733    2294.8627    359.31996    1622.1452    1206.2656   -333.35746    461.47246    531.48904    293.14316 
100660000   1.0066e+08    297.32999    101167.02    1073.2144     0.867463    -1125.395    2197.2846     460.8476    637.62821    2121.1675    85.180567    273.11141    344.59016    297.37301 
100670000   1.0067e+08    294.79173    101167.02     1451.732     0.867463   -1067.5305    2226.7838    2564.9746    908.12107    882.10036   -770.02837    125.42043    572.38436    294.78666 
100680000   1.0068e+08    288.80443    101167.02    1675.3663     0.867463     -1064.23    2163.1759    1380.0343    1739.5126    1906.5521   -728.34514   -128.57912    12.949811    288.79651 
100690000   1.0069e+08    287.62076    101167.02    956.56923     0.867463   -1132.3275    2081.8508     659.6841    1134.9312    1075.0924   -212.86751   -452.66679   -249.87459    287.62176 
100700000    1.007e+08    296.10872    101167.02    1666.3395     0.867463   -1081.0291    2228.0028    1758.1119    2200.4042    1040.5024   -409.84833    -103.2736   -286.41858    296.15744 
100710000   1.0071e+08    294.37591    101167.02     1579.131     0.867463   -1095.7326     2193.935    1463.8526     1300.652    1972.8883   -540.47536    517.44083   -553.52686    294.38142 
100720000   1.0072e+08    297.09353    101167.02    970.35129     0.867463   -1092.2902     2227.747    757.75181     918.8065    1234.4956   -113.42272   -74.212751    230.65913    297.14892 
100730000   1.0073e+08    294.94723    101167.02    908.37109     0.867463   -1064.1858    2231.8662    1042.7342    679.23444    1003.1446   -545.96431   -281.58837    296.13803    295.01223 
100740000   1.0074e+08    298.03125    101167.02    640.84764     0.867463    -988.3949    2342.1213    270.11095    950.55228     701.8797    -666.3239    271.82659    177.73275    298.05593 
100750000   1.0075e+08    290.95443    101167.02    1573.6308     0.867463   -1085.0141    2166.4183    1321.7203    1714.4851    1684.6868   -328.07862   -121.48916    313.88422    290.99293 
100760000   1.0076e+08    292.39595    101167.02    1874.3489     0.867463   -1070.8888    2196.6526    1869.0198    2771.5572    982.46958   -267.71977     578.3327   -37.374085    292.39429 
100770000   1.0077e+08    297.75934    101167.02    927.38897     0.867463    -1056.292    2271.1856    293.15483     860.9606    1628.0515   -245.23764    193.16886   -466.48585    297.79938 
100780000   1.0078e+08    293.51143    101167.02    1288.3523     0.867463   -961.68956    2318.3174    1154.0758    1407.7576    1303.2235    -824.6042   -382.80484    149.21733    293.55744 
100790000   1.0079e+08    294.08103    101167.02    728.94274     0.867463    -1029.733    2256.6393   -57.473942    1010.0798    1234.2223   -703.28837    208.24705    -149.7144    294.07381 
100800000    1.008e+08    293.43465    101167.02    595.49351     0.867463   -1119.1961    2159.9528    270.03778    262.12878     1254.314   -640.33511   -243.11725   -495.78879    293.47078 
100810000   1.0081e+08    297.13185    101167.02    168.38606     0.867463   -1179.7029    2140.7624    371.27004    49.324169    84.563966   -711.68328   -424.09239   -168.55678    297.13622 
100820000   1.0082e+08    291.49122    101167.02    1570.3376     0.867463   -1082.1422    2175.2888    1164.2221    2334.3236    1212.4673   -455.11969   -772.80487    168.85204    291.51535 
100830000   1.0083e+08    296.73516    101167.02    1882.6329     0.867463   -1067.4624    2248.5698    1453.5529    2389.5231    1804.8226     261.2144   -418.57122     351.3409    296.74509 
100840000   1.0084e+08    294.75425    101167.02    992.82105     0.867463   -1061.2569    2232.6387    1153.8367    1251.4682    573.15821   -691.08039   -170.59811    52.715355    294.73929 
100850000   1.0085e+08    297.87483    101167.02    1435.4802     0.867463   -1099.2124    2229.5557    1555.1167    1430.1331    1321.1907   -189.08516    67.129259    180.81997    297.91613 
100860000   1.0086e+08    290.40768    101167.02    1227.1986     0.867463   -991.74117    2253.5812    743.84047    1256.3755    1681.3799   -1097.2519    55.949898   -1.4096316    290.40904 
100870000   1.0087e+08    297.36138    101167.02     2153.777     0.867463    -1017.593    2305.4374    1869.1018    3107.8293    1484.4001    64.890281    277.29297   -225.21653    297.38411 
100880000   1.0088e+08    294.44579    101167.02    598.68957     0.867463   -989.46609    2300.9824    1143.7943    591.13171    61.142638   -925.54079     222.4356    46.627562    294.45779 
100890000   1.0089e+08    287.07472    101167.02    850.99731     0.867463   -1064.2944     2143.782    254.06976    1761.6721    537.25004    96.129719    144.16351    558.31717    287.12012 
100900000    1.009e+08    298.89508    101167.02    1661.8227     0.867463   -997.63558     2342.534    1673.7586    1755.4704    1556.2392   -72.692307    -747.1585   -323.81801    298.90331 
100910000   1.0091e+08    291.73043    101167.02    517.18054     0.867463   -1034.9199    2225.1843    1071.6465    115.90119    363.99391   -659.98396   -433.96643   -368.33496    291.74452 
100920000   1.0092e+08    288.74793    101167.02     278.4617     0.867463   -116Generated thermo.dat
Done!
stress
average  376.214
square average  141870
number of blocks  100
variance  1.82490055619477523353
pxx
average  967.078
square average  936638
number of blocks  100
variance  3.73917359318874094981
pyy
average  1325.48
square average  1.75759*10^06
number of blocks  100
variance  2.63205167122531999884
pzz
average  1217.14
square average  1.48197*10^06
number of blocks  100
variance  2.32426418463994750770
xx
average  2183.13
square average  4.76606*10^06
number of blocks  100
variance  .18447493054613138951
yy
average  2183.09
square average  4.76589*10^06
number of blocks  100
variance  .28375870030714476755
zz
average  2182.28
square average  4.76235*10^06
number of blocks  100
variance  .20003999600079980005
xx
average  -512.588
square average  264165
number of blocks  100
variance  3.76635401416276852884
yy
average  -154.168
square average  24462.3
number of blocks  100
variance  2.63538948924063215024
zz
average  -261.955
square average  69166.4
number of blocks  100
variance  2.33661715948505351208
pressure, stress.strain, ktensor, virial are all concatenated
averages computed will all accumulated data until now
3.1712    2063.6033   -422.44295    870.80467    387.02339   -1443.1106    22.969654   -600.82192    288.75299 
100930000   1.0093e+08    289.94931    101167.02     1354.113     0.867463   -1118.0495    2122.1506    1362.3393    1525.5196    1174.4802   -392.33515    421.54093   -652.66767     290.0169 
100940000   1.0094e+08    289.35037    101167.02    1521.2434     0.867463   -1149.3265    2084.1803    1690.6404    1784.0109    1089.0789   -368.04647    381.68626    349.61153    289.33819 
100950000   1.0095e+08    292.24345    101167.02    2017.3586     0.867463   -1036.0536    2229.7836    1616.6086    2055.9191    2379.5481   -104.38931    394.37629   -874.22319    292.24763 
100960000   1.0096e+08    295.86822    101167.02    1987.4809     0.867463   -1114.0458    2192.2983    1196.1006    1864.6505    2901.6914   -916.84825   -285.30542   -111.38836    295.87399 
100970000   1.0097e+08    291.91674    101167.02   -454.56428     0.867463   -1014.6358    2247.5504   -1291.8736    428.66887   -500.48806    66.723302   -124.28466   -6.1618468    291.94087 
100980000   1.0098e+08    292.21136    101167.02    1356.0494     0.867463    -1120.205    2145.2736    813.07473    1373.7947    1881.2789   -593.40841   -180.85558    338.55474    292.20855 
100990000   1.0099e+08    290.75372    101167.02    1287.1433     0.867463    -1051.426    2197.7634    1827.0376    1088.2333    946.15884   -208.69183    -754.8607    -150.2853     290.7376 
101000000     1.01e+08    293.74497    101167.02    1595.0651     0.867463   -1063.4401    2219.1766    1730.4816    1851.8855    1202.8281   -650.28848   -340.47251    225.26176    293.78581 
Loop time of 14555.1 on 48 procs for 50000000 steps with 3750 atoms

Pair  time (%) = 4984.25 (34.244)
Bond  time (%) = 1023.17 (7.02964)
Neigh time (%) = 2607.81 (17.9168)
Comm  time (%) = 4327.12 (29.7292)
Outpt time (%) = 0.418539 (0.00287555)
Other time (%) = 1612.33 (11.0774)

Nlocal:    78.125 ave 93 max 67 min
Histogram: 3 5 2 10 9 11 6 0 1 1
Nghost:    1315.56 ave 1339 max 1277 min
Histogram: 1 2 1 2 7 8 6 10 7 4
Neighs:    6356.12 ave 7618 max 5413 min
Histogram: 4 4 5 8 8 13 3 1 0 2

Total # of neighbors = 305094
Ave neighs/atom = 81.3584
Ave special neighs/atom = 6.26667
Neighbor list builds = 5604052
Dangerous builds = 0
System init for write_restart ...

real	490m12.879s
user	0m0.052s
sys	0m0.068s
