LAMMPS (10 Feb 2015)
Read molecule SQL:
  30 atoms with 3 types
  29 bonds with 1 types
  34 angles with 1 types
  31 dihedrals with 2 types
  0 impropers with 0 types
Reading restart file ...
  restart file = 28 Jun 2014, LAMMPS = 10 Feb 2015
WARNING: Restart file used different # of processors (../read_restart.cpp:705)
  triclinic box = (112.396 112.396 112.396) to (157.604 157.604 157.604) with tilt (0 0 0)
  3 by 4 by 4 MPI processor grid
  3750 atoms
  3625 bonds
  4250 angles
  3875 dihedrals
250 atoms in group endatoms
WARNING: New thermo_style command, previous thermo_modify settings will be lost (../output.cpp:665)
Neighbor list info ...
  1 neighbor list requests
  update every 1 steps, delay 0 steps, check yes
  master list distance cutoff = 10.3
Setting up run ...
Memory usage per processor = 2.182 Mbytes
Step Time Temp Volume Press Density PotEng TotEng Pxx Pyy Pzz Pxy Pyz Pxz myT 
       0            0    294.09624    92391.171    3464.0952   0.96344716   -390.86614     2895.676    4199.5452    2741.9897    3450.7508    227.05388    256.03452   -267.16087    294.09624 
    1000         1000    298.63912    92391.171    4610.5629   0.96344716   -408.02329    2929.2858    4582.6783    4348.8116    4900.1989    666.59679    8.7784294    101.29181    298.63912 
    2000         2000    293.23134    92391.171    3348.5491   0.96344716   -359.35349    2917.5234    3896.4463    2523.1997    3626.0013    598.81377    590.96809   -61.546004    293.23134 
    3000         3000    294.37248    92391.171    4303.1127   0.96344716   -463.75446    2825.8748    4918.3813     4046.685    3944.2718   -771.02988    114.09887    222.56714    294.37248 
    4000         4000    291.90591    92391.171    3339.1248   0.96344716   -385.82882    2876.2363    3164.0599    2433.3785    4419.9361   -645.64624    72.608605   -881.67983    291.90591 
    5000         5000    301.01999    92391.171    4032.1439   0.96344716   -340.84776    3023.0678    3844.4889    4100.5568    4151.3861    14.691875    1072.5589   -62.493674    301.01999 
    6000         6000    288.81112    92391.171    4014.8905   0.96344716   -371.67028    2855.8104     3902.152    3592.1333    4550.3863    305.97123    -376.0375    911.52849    288.81112 
    7000         7000    295.74316    92391.171    2575.2049   0.96344716   -306.30203    2998.6447    2778.3623    2631.2309    2316.0217    247.77239    507.76284    91.033847    295.74316 
    8000         8000    292.60805    92391.171    4566.1825   0.96344716   -497.89227    2772.0193    4682.7163    4880.8029    4135.0284   -393.41034    100.11706   -419.06221    292.60805 
    9000         9000    293.83792    92391.171    4921.9012   0.96344716   -349.70656    2933.9489    6071.7462     3088.499    5605.4585   -375.23502   -499.19636    203.30154    293.83792 
   10000        10000    292.17148    92391.171    4262.2106   0.96344716   -417.56264    2847.4702    2935.9395    5119.8625    4730.8298   -274.27951   -21.080424    745.49812    292.17148 
   11000        11000    296.38543    92391.171     3021.579   0.96344716   -307.49629    3004.6278    2923.8443    2422.7362    3718.1563   -1211.7216    652.69133    54.156624    296.38543 
   12000        12000    290.93217    92391.171    3223.0833   0.96344716   -342.61357      2908.57    4115.3974    3626.6335    1927.2188   -511.91406    -418.3763    48.377669    290.93217 
   13000        13000    294.67832    92391.171    2141.6414   0.96344716   -405.37669    2887.6703    1796.4541    2182.2088    2446.2613   -506.26482    466.57691   -416.72052    294.67832 
   14000        14000    293.56298    92391.171    1644.3909   0.96344716    -333.5799    2947.0031    2266.9021    324.53889    2341.7318    202.22956    -4.933093    488.40832    293.56298 
   15000        15000    299.51925    92391.171    4145.3741   0.96344716   -425.15184    2921.9928    5634.4932    3444.1381    3357.4908   -63.586343    322.61252   -446.21282    299.51925 
   16000        16000    296.00716    92391.171    4891.1646   0.96344716   -402.47211    2905.4248    4019.6054    5864.0129    4789.8756   -835.20264    858.58904    744.77395    296.00716 
   17000        17000    289.28705    92391.171    3870.3646   0.96344716   -289.03771    2943.7615    3931.1576    3433.7827    4246.1535     772.4824   -503.35071    1104.4937    289.28705 
   18000        18000    290.00703    92391.171    4366.3983   0.96344716   -409.77291    2831.0721    3897.6466    3606.7783      5594.77    -705.4871    680.03316     232.6633    290.00703 
   19000        19000    295.47414    92391.171    5024.8178   0.96344716   -311.30347    2990.6368    5420.3925    4405.6299     5248.431    -96.75273    413.35292   -506.24079    295.47414 
   20000        20000    293.58976    92391.171    5071.2805   0.96344716   -446.73063    2834.1517    6581.6156    4572.0191    4060.2067   -431.62505    7.3258284    57.168191    293.58976 
   21000        21000    296.80719    92391.171    4747.8606   0.96344716   -322.63736    2994.1999    6192.9534    3850.2589    4200.3695   -223.79861    457.22488    683.99229    296.80719 
   22000        22000    293.08498    92391.171    4408.8087   0.96344716   -431.65618    2843.5851    3528.4099    5361.2493    4336.7668   -626.77872    403.30493   -239.05199    293.08498 
   23000        23000    292.88167    92391.171     3541.694   0.96344716   -326.53043    2946.4389    2515.7902    3939.7507     4169.541   -363.89045    -65.21137    586.69248    292.88167 
   24000        24000    292.46975    92391.171    4137.5989   0.96344716   -364.15884    2904.2073    4449.4819    4531.2479    3432.0669    485.92435    637.29026    18.513673    292.46975 
   25000        25000    289.66027    92391.171    3063.5328   0.96344716   -363.78055    2873.1895    4131.7068    2991.2464    2067.6453    1150.1492   -292.47077   -227.83227    289.66027 
   26000        26000    298.03753    92391.171    4700.0077   0.96344716   -381.37055    2949.2158    3749.7367    4818.2839    5532.0024   -1193.5203     375.4728    174.83407    298.03753 
   27000        27000    292.98008    92391.171    4138.4825   0.96344716   -375.88547    2898.1836    3935.3375    3656.3889    4823.7212   -436.27813    566.07974    660.78947    292.98008 
   28000        28000    294.83423    92391.171    4692.8638   0.96344716   -249.44815    3045.3412    3463.4391    5292.9812     5322.171    42.403237    482.27528    1653.5069    294.83423 
   29000        29000     281.5885    92391.171    4109.5654   0.96344716   -336.85366    2809.9138    4100.1319    4841.1375    3387.4269   -618.79564    487.10602    579.75575     281.5885 
   30000        30000    295.74628    92391.171    5208.3144   0.96344716   -352.55807    2952.4235    4733.8368      4797.39    6093.7164   -1240.4945   -628.32995    138.24077    295.74628 
   31000        31000    290.83112    92391.171    3933.7026   0.96344716   -319.99424    2930.0601    3586.5973    4139.7982    4074.7122    164.01383   -434.26717    694.35706    290.83112 
   32000        32000    289.59676    92391.171    3195.8499   0.96344716   -367.54463    2868.7157    3566.5454    1845.0469    4175.9574   -562.32585    689.32587   -175.71051    289.59676 
   33000        33000    292.89855    92391.171    4252.0046   0.96344716   -361.26092     2911.897    4837.1251    4310.7282    3608.1605    1.5169768    -248.3092    171.30087    292.89855 
   34000        34000    291.73121    92391.171    4285.7811   0.96344716   -266.51613    2993.5968    4554.5153    4149.1394    4153.6884   -1436.1546   -22.985547   -1332.8171    291.73121 
   35000        35000     293.1686    92391.171    2848.7244   0.96344716   -340.64575    2935.5301     3097.883    1570.9413     3877.349   -645.26982   -954.96941   -141.13119     293.1686 
   36000        36000    289.39719    92391.171    3174.1467   0.96344716   -365.11878    2868.9112    3100.2768    2487.8174     3934.346    -55.98967    235.05515    1025.2554    289.39719 
   37000        37000    302.35784    92391.171     4023.573   0.96344716   -355.68545    3023.1807    3359.1062    4812.3888    3899.2241   -766.33942   -1022.0724    195.57637    302.35784 
   38000        38000    293.80155    92391.171    4636.7535   0.96344716   -309.48614    2973.7628    5882.2432    3713.4346    4314.5828   -79.509736   -443.80775      -1209.1    293.80155 
   39000        39000    294.68265    92391.171    4290.9455   0.96344716    -400.4707    2892.6246    4043.3982    5103.8238    3725.6144   -126.63566    103.58746    680.01937    294.68265 
   40000        40000    297.49825    92391.171    3476.7536   0.96344716    -316.2513    3008.3086    2749.8742    4906.6085    2773.7781   -607.62473   -789.81197     124.4959    297.49825 
   41000        41000    294.24157    92391.171    4244.5449   0.96344716   -397.87307    2890.2932    4707.8805    4183.7223     3842.032   -594.51171   -233.18555    258.54055    294.24157 
   42000        42000    297.23086    92391.171    3618.0151   0.96344716   -307.71019    3013.8615    4372.0917    3323.3347    3158.6189   -1301.9884    234.81438   -383.71375    297.23086 
   43000        43000    292.92858    92391.171     2935.456   0.96344716   -393.98721    2879.5063    1838.4897    3944.4068    3023.4715   -416.43491    67.557554   -60.804464    292.92858 
   44000        44000    297.08032    92391.171    3826.4139   0.96344716   -293.80436    3026.0851    3457.7795    3691.4169    4330.0452   -1107.3779   -72.225772    226.83207    297.08032 
   45000        45000    292.49363    92391.171    1840.4732   0.96344716   -248.69557    3019.9374    2321.9784    2030.9856    1168.4556   -1297.0747    449.81608   -367.29604    292.49363 
   46000        46000    283.60837    92391.171    3332.8275   0.96344716   -376.32151    2793.0181    4112.9526     3234.004    2651.5259   -832.35065    365.22254    350.86382    283.60837 
   47000        47000    293.60908    92391.171     4252.004   0.96344716    -327.1506    2953.9475    2748.9025    4343.2944    5663.8151   -1822.8494    65.862254   -1038.9904    293.60908 
   48000        48000     303.0151    92391.171    2305.4248   0.96344716   -365.25029    3020.9607    2578.0588     2222.222    2115.9935    -329.9737   -348.65713    803.62731     303.0151 
   49000        49000    289.71386    92391.171    5169.1036   0.96344716   -277.18098    2960.3878    4680.6479    5933.9789     4892.684   -396.20584   -597.42056   -456.59982    289.71386 
   50000        50000    290.19005    92391.171    3336.8393   0.96344716   -269.61561    2973.2747    1937.9944     4748.496    3324.0277    -669.8886    1172.1477    -762.6218    290.19005 
   51000        51000    286.21831    92391.171    4261.2506   0.96344716   -226.34017    2972.1658    2816.9214    5340.9845    4625.8461   -1358.6395    1215.3551   -761.92655    286.21831 
   52000        52000     293.0185    92391.171    4106.6468   0.96344716   -193.06903    3081.4294    4330.1644    5207.2085    2782.5675   -1095.5929    306.04192    108.80624     293.0185 
   53000        53000    290.10481    92391.171    3812.0239   0.96344716   -296.92856    2945.0092    4272.2571    2653.3284    4510.4862   -249.36331     633.8606   -207.21352    290.10481 
   54000        54000    288.32416    92391.171    4017.5844   0.96344716   -314.87534    2907.1636    4145.0165    3806.8208     4100.916   -813.72803   -148.46403    113.18785    288.32416 
   55000        55000    294.55243    92391.171    3839.3995   0.96344716   -313.74358    2977.8966    2920.5473    4479.0932     4118.558   -650.34805   -427.07792     202.8845    294.55243 
   56000        56000    285.95905    92391.171    3437.7638   0.96344716    -284.5165    2911.0921    3200.3497     3912.256    3200.6856    -998.6094    85.343799   -620.59863    285.95905 
   57000        57000    298.20893    92391.171    3719.0038   0.96344716   -286.16854    3046.3332    4590.9055    3881.2035    2684.9022   -696.28168    -21.96782   -732.38764    298.20893 
   58000        58000     294.7578    92391.171    2938.2684   0.96344716   -301.07659    2992.8586     3908.803    2154.4751    2751.5273   -1933.2296   -128.60594   -384.34288     294.7578 
   59000        59000    290.91105    92391.171    3960.9017   0.96344716   -330.63518    2920.3123    3662.9738    4053.8724     4165.859   -852.02885    525.12655   -413.13903    290.91105 
   60000        60000     292.8787    92391.171     5249.158   0.96344716   -273.85638    2999.0797     5113.165    4424.9895    6209.3197   -1672.5175    290.99933   -628.06465     292.8787 
   61000        61000    290.20465    92391.171    4734.2603   0.96344716    -257.2377    2985.8158    3978.7637    5958.0753     4265.942   -929.53916   -946.12146   -818.21019    290.20465 
   62000        62000    289.03202    92391.171    3895.2252   0.96344716   -326.72827     2903.221    4293.0027    3594.9417    3797.7313    -1358.257   -949.28801    232.14915    289.03202 
   63000        63000    293.06647    92391.171    4034.9435   0.96344716   -209.05868    3065.9758     3610.559    3634.0388    4860.2328    570.92576    973.54748    643.01001    293.06647 
   64000        64000    295.02691    92391.171     3644.481   0.96344716   -306.28048    2990.6621    2832.4368    4036.9236    4064.0827    -818.7721   -705.07325   -97.276691    295.02691 
   65000        65000    294.37601    92391.171    4262.3548   0.96344716   -284.72849    3004.9402    4074.9576    4077.7607     4634.346   -1368.6331   -848.05358    1182.3978    294.37601 
   66000        66000     293.4086    92391.171    4373.8689   0.96344716    -207.6338     3071.224    5437.6214    2567.8616    5116.1236   -2635.0948   -430.57899   -130.61421     293.4086 
   67000        67000     291.5349    92391.171    3119.7997   0.96344716   -285.63185    2972.2872    3832.9448    3471.9297    2054.5247   -1691.8301   -275.59234    191.67076     291.5349 
   68000        68000    297.92334    92391.171    4657.6435   0.96344716   -295.90006    3033.4103    4882.3126    5505.9884    3584.6295   -376.15459    831.46558     188.1707    297.92334 
   69000        69000    293.23622    92391.171    4422.0718   0.96344716   -286.31093    2990.6205    5360.6418    3752.0893    4153.4841   -65.933142   -52.380532    73.521748    293.23622 
   70000        70000    294.07193    92391.171    5270.8757   0.96344716   -280.90025    3005.3703    3528.5156    5603.4955    6680.6161   -1195.4878   -486.65213   -281.70451    294.07193 
   71000        71000     292.3017    92391.171    4349.5408   0.96344716   -237.14793    3029.3401    5212.2351    3833.3348    4003.0523   -1901.6244   -977.75242   -994.64573     292.3017 
   72000        72000    302.93566    92391.171    3729.2953   0.96344716   -301.06068    3084.2626    4287.3844    2995.7825    3904.7188   -1472.1796   -367.61884   -512.45247    302.93566 
   73000        73000    288.51161    92391.171    5112.0288   0.96344716   -233.50885    2990.6248    5139.8875    5186.9297    5009.2694   -1443.2607   -1337.9049   -445.74215    288.51161 
   74000        74000    286.49527    92391.171    4701.1437   0.96344716   -221.14269    2980.4583    4989.7002    4789.4454    4324.2856   -1936.3663    -491.1744    781.37962    286.49527 
   75000        75000    298.16622    92391.171    5119.8925   0.96344716   -226.53408    3105.4903    6057.9078    4629.3521    4672.4176    -1973.921   -1919.3927    546.14623    298.16622 
   76000        76000     293.8538    92391.171     4320.459   0.96344716   -232.00949    3051.8234     4477.909    3818.7468    4664.7213   -800.47879   -867.38596   -185.20312     293.8538 
   77000        77000    287.34928    92391.171    3616.2765   0.96344716   -223.27959    2987.8649    2571.9465    3649.3671    4627.5159   -1286.5565    1077.5047     732.4372    287.34928 
   78000        78000    294.10971    92391.171    3785.1946   0.96344716   -194.18027    3092.5124    2496.3865    4954.0863    3905.1109    -257.0997   -618.39579   -787.50336    294.10971 
   79000        79000     291.5767    92391.171    5136.4434   0.96344716   -244.52276    3013.8635    4680.0445    4950.6548    5778.6309   -256.77953    -108.7952    539.32744     291.5767 
   80000        80000    290.40177    92391.171     3878.131   0.96344716   -137.22831     3108.028    4869.2709    3273.1043     3492.018   -1630.6244     829.9834    89.705795    290.40177 
   81000        81000    288.89632    92391.171     4017.974   0.96344716   -214.97094    3013.4619    4825.6979    3469.5359    3758.6883    182.15767   -718.47064   -809.05651    288.89632 
   82000        82000    291.74222    92391.171    4479.1553   0.96344716   -185.68032    3074.5556    2761.7045    6040.9478    4634.8137   -1007.5752   -623.45271    264.18193    291.74222 
   83000        83000    291.85599    92391.171    4440.4516   0.96344716   -166.29403    3095.2132    3090.9787    5126.0148    5104.3611   -925.64989    384.60366    456.24251    291.85599 
   84000        84000    286.56193    92391.171    3977.9631   0.96344716   -231.78467    2970.5612    3597.6304    4182.5236    4153.7353   -1581.6369     620.0367    288.42439    286.56193 
   85000        85000    298.33673    92391.171    5656.3351   0.96344716   -143.77362    3190.1563     6229.915     4775.918    5963.1722   -1036.8189   -454.95465    890.60041    298.33673 
   86000        86000    291.71721    92391.171    4474.7451   0.96344716   -295.38933    2964.5671    4564.4639    4543.8737    4315.8977   -2084.9063    -1590.261    122.42146    291.71721 
   87000        87000     297.2199    92391.171    3157.8513   0.96344716   -145.14274    3176.3065    1587.8464    3524.4922    4361.2153   -2804.5404    30.418752    -559.2316     297.2199 
   88000        88000     290.6221    92391.171    4868.2278   0.96344716   -196.33942     3051.379    4853.2747    5603.1925    4148.2162   -1441.8282   -477.63906    735.58052     290.6221 
   89000        89000    291.06526    92391.171    3963.6238   0.96344716   -254.67679    2997.9941    4662.7987    1916.8556    5311.2173   -751.71538    500.54289    213.81978    291.06526 
   90000        90000    303.73883    92391.171    5837.9566   0.96344716   -144.43596    3249.8627    5458.6988    6843.7738    5211.3972   -1973.4315   -909.94962    184.06238    303.73883 
   91000        91000    286.73154    92391.171    3478.8791   0.96344716   -185.07206    3019.1692    3415.9783    3008.0038    4012.6551   -1426.8432      955.167   -238.80572    286.73154 
   92000        92000    297.71245    92391.171    3847.0949   0.96344716   -209.23601    3117.7175    5300.5344    3727.2868    2513.4634   -919.98538    185.70929    233.63394    297.71245 
   93000        93000    290.89244    92391.171    4684.1977   0.96344716   -179.67577    3071.0638    4586.5588     5545.337    3920.6974   -2666.0342    238.05438   -29.648814    290.89244 
   94000        94000    295.38763    92391.171    6396.3953   0.96344716   -179.00093    3121.9726    7263.7002    6417.1713    5508.3143   -1904.1748    40.498919   -166.43756    295.38763 
   95000        95000    290.83625    92391.171    4027.7627   0.96344716   -191.32712    3058.7845    4733.8921    3815.1037    3534.2923   -1545.9877   -1098.5557    146.27616    290.83625 
   96000        96000     292.4648    92391.171    4819.8813   0.96344716   -236.63736    3031.6734    4498.3476    5533.7377    4427.5585   -888.00841    188.20841    196.85918     292.4648 
   97000        97000    293.40776    92391.171    3800.4177   0.96344716   -228.63716    3050.2113    3671.0733    4164.2117     3565.968   -1260.5243    121.89414    1057.2203    293.40776 
   98000        98000    294.09073    92391.171    4053.0927   0.96344716   -93.724972    3192.7556    3789.3612    4825.9826    3543.9343    -701.6987   -205.61004    890.00501    294.09073 
   99000        99000    291.90293    92391.171    4072.4067   0.96344716   -185.61263    3076.4192    3353.0017    3721.3574    5142.8611    -767.8019   -1.9155715    -263.5534    291.90293 
  100000       100000    292.34336    92391.171    5587.1115   0.96344716   -202.62703    3064.3267    5770.2372    6315.3445    4675.7528   -1174.8252    196.51566   -52.519674    292.34336 
  101000       101000    297.48419    92391.171    6038.6261   0.96344716   -135.79704    3188.6057    5324.8682    5503.8757    7287.1344   -1620.4489    727.31504    108.93877    297.48419 
  102000       102000    295.29095    92391.171    4751.4416   0.96344716   -271.27609    3028.6171    3875.8226    4908.7807    5469.7215   -1421.1334   -399.71457   -709.88823    295.29095 
  103000       103000     294.2855    92391.171    4106.2804   0.96344716   -110.03448    3178.6227    2453.7087    5175.7373    4689.3951   -1036.8835    99.591467     111.5749     294.2855 
  104000       104000    286.04396    92391.171    5308.4391   0.96344716    -189.8205     3006.737    5233.8501     5115.726    5575.7412   -649.14463   -285.87124    117.14557    286.04396 
  105000       105000    297.70383    92391.171    5983.6597   0.96344716   -174.10579    3152.7515    6025.3079    6068.0006    5857.6706   -818.27616   -887.76711    108.89132    297.70383 
  106000       106000     293.0444    92391.171    5219.4613   0.96344716   -155.49652    3119.2913    5726.4679    4083.2706    5848.6455   -837.18778   -204.38467    982.18153     293.0444 
  107000       107000    287.57846    92391.171    3847.8576   0.96344716   -193.34448    3020.3612    3957.0875    3447.4872    4138.9981     -1220.54    750.69245   -393.85545    287.57846 
  108000       108000    291.73391    92391.171    3559.0906   0.96344716   -94.644213    3165.4989    2868.7558     4072.953     3735.563   -1063.0989    1136.1872   -27.274358    291.73391 
  109000       109000    292.69075    92391.171    4057.3108   0.96344716   -242.93851    3027.8973    3409.3869    3422.7456       5339.8   -2604.9379   -664.10447   -7.5282459    292.69075 
  110000       110000    292.34306    92391.171    4566.3778   0.96344716   -137.64066    3129.3097    4573.6034    3862.4367    5263.0932    -784.1727   -324.86056    913.84859    292.34306 
  111000       111000    292.85215    92391.171    5242.9787   0.96344716   -163.45145     3109.188    5622.6752    4457.1199     5649.141   -1451.7171   -27.666129   -35.132966    292.85215 
  112000       112000    291.52951    92391.171    5504.5492   0.96344716   -115.94006    3141.9188    4537.8151    6367.4785    5608.3539   -1532.9135    37.478978   -311.67561    291.52951 
  113000       113000     286.5729    92391.171    4986.3218   0.96344716   -87.126884    3115.3415     3794.924    5253.9987    5910.0426   -1316.8653    193.47844   -437.91155     286.5729 
  114000       114000    299.72557    92391.171    3955.2255   0.96344716   -193.38981    3156.0605    4001.8816    4269.2286    3594.5663   -2714.3114    -111.9532    494.14384    299.72557 
  115000       115000    286.41425    92391.171    4083.7941   0.96344716   -116.81372    3083.8818    4434.4317    4158.8992    3658.0514   -695.35098    230.81945    955.37551    286.41425 
  116000       116000    297.71098    92391.171     4768.124   0.96344716   -187.01766    3139.9195    4670.1216    4232.4408    5401.8097   -1583.4359   -821.63365    791.85043    297.71098 
  117000       117000    290.78096    92391.171    4581.7143   0.96344716   -88.840999    3160.6528    4790.1641    3493.0426    5461.9361   -698.64738    636.69058    632.91782    290.78096 
  118000       118000    292.91089    92391.171    4382.3836   0.96344716   -207.08236    3066.2135    4363.4253    4847.6086    3936.1168   -1556.3469   -18.147151   -174.75811    292.91089 
  119000       119000    295.46731    92391.171    3308.4273   0.96344716   -110.46766    3191.3964    4490.3462    3342.7951    2092.1406   -1365.4774    493.56634    514.79501    295.46731 
  120000       120000    291.19108    92391.171    4357.2521   0.96344716   -90.373419    3163.7035    3641.0832    4936.7784    4493.8945    -1617.117   -124.11549     380.8736    291.19108 
  121000       121000    294.44669    92391.171      4191.82   0.96344716   -97.870479     3192.588    3815.3149    5018.9259    3741.2191   -2123.5684    51.931377    564.22066    294.44669 
  122000       122000    287.26761    92391.171    3674.6977   0.96344716   -104.46011    3105.7718    3231.8332    3934.5547     3857.705    -2119.934    458.21041   -326.94643    287.26761 
  123000       123000    287.38579    92391.171    5601.7063   0.96344716   -81.017312    3130.5352    4217.2394    6243.2439    6344.6355     -1013.63    215.16717   -116.21136    287.38579 
  124000       124000    293.01566    92391.171    4934.6483   0.96344716   -124.27894    3150.1878    4321.9494    5783.5663    4698.4291   -500.73282    157.55404    293.99384    293.01566 
  125000       125000    295.59843    92391.171    6018.5152   0.96344716   -73.144151    3230.1851    6970.0617    5171.5221    5913.9617    -1574.884   -793.26563   -490.74727    295.59843 
  126000       126000    298.54019    92391.171    5414.2059   0.96344716   -224.87145    3111.3322    4868.4484    6500.1937    4873.9757   -690.85424    31.408278   -976.70496    298.54019 
  127000       127000      290.527    92391.171    4024.1256   0.96344716   -37.411278    3209.2444    4069.2302    4612.9907    3390.1559    -394.7735    -99.13738    382.13995      290.527 
  128000       128000      288.514    92391.171    4252.9714   0.96344716   -195.03503    3029.1254     4054.297    3923.3322    4781.2849   -1140.6575    885.87665    -178.6979      288.514 
  129000       129000    296.86026    92391.171    4817.9947   0.96344716   -19.191516    3298.2388    4035.0191    5675.4676    4743.4976   -2121.3577    721.84902   -163.05541    296.86026 
  130000       130000    293.22461    92391.171    4421.5721   0.96344716   -147.55661    3129.2451    3592.1139    5281.3708    4391.2316   -472.33453    29.700575    568.53198    293.22461 
  131000       131000    296.41951    92391.171    3558.4269   0.96344716   -189.47413    3123.0308     4126.052    3814.2574    2734.9714   -1354.0623   -841.31745    598.68404    296.41951 
  132000       132000    292.11964    92391.171     4265.731   0.96344716   -148.90811    3115.5455    4137.6243    3854.0007     4805.568   -727.71722    580.84264    553.96265    292.11964 
  133000       133000    295.21836    92391.171     4901.725   0.96344716    -151.0515    3148.0304    4139.8027     4809.635    5755.7372   -968.11843    641.47797   -106.83626    295.21836 
  134000       134000    296.66512    92391.171    4738.8118   0.96344716   -71.314027    3243.9356     2283.331    5949.9296    5983.1749    90.116875     712.3628   -844.22943    296.66512 
  135000       135000    287.37456    92391.171    4447.6097   0.96344716   -177.38427    3034.0428    4745.8743    3899.1672    4697.7877   -688.14756    983.47454    963.65759    287.37456 
  136000       136000    297.42772    92391.171      3680.85   0.96344716   -18.556216    3305.2155    3779.0248    3331.2884    3932.2369   -2495.2307    440.17919   -582.91028    297.42772 
  137000       137000    285.68983    92391.171    4763.5967   0.96344716   -92.379874    3100.2202    3315.4318     5489.867    5485.4913    -1504.088    246.05884    579.59259    285.68983 
  138000       138000    295.24631    92391.171    4538.9281   0.96344716   -128.07411    3171.3202    3674.4972    6169.8369    3772.4501   -1212.1459    465.18215    645.46569    295.24631 
  139000       139000     291.4628    92391.171    3722.1229   0.96344716   -83.900198    3173.2131    3103.3238    4489.3551    3573.6899   -1494.4315   -1028.2576   -906.61879     291.4628 
  140000       140000    289.02269    92391.171    3742.2302   0.96344716   -113.31569    3116.5293     4617.212    4045.9944    2563.4841   -1246.7496    815.96077   -852.85955    289.02269 
  141000       141000    288.80437    92391.171    5059.1553   0.96344716   -73.693066    3153.7122    6190.6077    5180.3416    3806.5165   -1033.3269   -753.62155    105.80685    288.80437 
  142000       142000    300.94431    92391.171    5082.5007   0.96344716   -104.35861    3258.7111    4594.6832    4446.9546    6205.8641   -1895.3339    106.59705    333.16528    300.94431 
  143000       143000    294.53378    92391.171    4453.5748   0.96344716   -176.95472     3114.477    4537.4587    5219.4551    3603.8105   -746.89019   -911.39273    455.42737    294.53378 
  144000       144000    288.43488    92391.171    5904.1521   0.96344716   -108.40504    3114.8712     6482.828    5266.1475    5963.4808   -1001.5223    -67.33842    164.91932    288.43488 
  145000       145000    295.58018    92391.171    3958.5695   0.96344716   -64.366217    3238.7591     4504.809    4265.3281    3105.5714   -564.42311     771.8468    116.66048    295.58018 
  146000       146000    296.18231    92391.171     5333.569   0.96344716   -136.79447    3173.0597    6197.5815    4604.2437    5198.8819   -889.20533   -673.34443   -233.00955    296.18231 
  147000       147000    297.16252    92391.171    4789.8863   0.96344716   -173.37576    3147.4323    5643.8949    4918.8353    3806.9288   -94.433296   -1023.1731    271.54508    297.16252 
  148000       148000    295.16962    92391.171    4799.4575   0.96344716   -95.195371     3203.342    4498.5415    6294.5621     3605.269   -1061.2578   -325.45637    818.51502    295.16962 
  149000       149000    285.71404    92391.171    5087.3991   0.96344716   -126.60738    3066.2632    5446.4071    5590.4576    4225.3328   -1956.9784    91.581049    212.00232    285.71404 
  150000       150000    292.87629    92391.171    5651.8181   0.96344716   -44.124937    3228.7842    6106.0621    4924.5673    5924.8248   -772.62274   -1142.1034    -9.715349    292.87629 
  151000       151000    295.24912    92391.171    4472.3685   0.96344716   -118.10538    3181.3204    2950.8655    5667.8485    4798.3914   -1127.7535   -301.38896    430.75199    295.24912 
  152000       152000    288.06412    92391.171    4257.0132   0.96344716   -95.115277    3124.0176    3495.8168    4624.6984    4650.5245   -1484.7723   -669.61646    -301.9628    288.06412 
  153000       153000    289.31226    92391.171     5128.629   0.96344716    -47.56787    3185.5131     4107.967    5823.1634    5454.7568   -1620.8135   -913.88021    1246.7578    289.31226 
  154000       154000    287.86474    92391.171    5253.3375   0.96344716   -101.79155    3115.1133    5364.5754    5752.2738    4643.1633   -123.07519   -254.58304    1323.0046    287.86474 
  155000       155000     296.6993    92391.171    6117.0549   0.96344716   -17.996179    3297.6353    6170.3903    5809.5982    6371.1762   -1481.5494    253.91196   -1002.1669     296.6993 
  156000       156000    288.98217    92391.171     5018.555   0.96344716   -85.607799    3143.7844    3652.7924    5399.3528    6003.5199   -1261.1488   -174.18245   -1585.8978    288.98217 
  157000       157000     282.3581    92391.171    5320.2163   0.96344716   -16.361591    3139.0062     4809.663    5274.7042    5876.2818   -1220.1133   -485.37214    295.46267     282.3581 
  158000       158000    290.22793    92391.171    5904.9217   0.96344716   -4.9099794    3238.4036    6858.1249    5651.7811    5204.8591   -972.85933    301.86391    823.98525    290.22793 
  159000       159000    291.95194    92391.171    4199.2773   0.96344716   -36.106838    3226.4727    4261.9694    3519.5227    4816.3399   -1469.6799   -181.94864    920.78285    291.95194 
  160000       160000     296.0517    92391.171    4927.1507   0.96344716   -92.113681    3216.2809     6236.455    5034.9393     3510.058   -809.32586   -330.71565   -515.21162     296.0517 
  161000       161000    293.77152    92391.171    4924.2793   0.96344716   -2.6921244    3280.2213    5165.3094    4809.6669    4797.8616   -1015.9054   -458.78237   -1250.8035    293.77152 
  162000       162000    289.57966    92391.171    5901.9924   0.96344716   -131.39088    3104.6783    4747.7194    7349.5181    5608.7396   -846.01492    521.44693    353.52794    289.57966 
  163000       163000    294.68102    92391.171    3981.8493   0.96344716   -15.986255    3277.0909     3288.906    5461.4674    3195.1745   -366.70758    -621.5297    270.49242    294.68102 
  164000       164000    293.64085    92391.171    5228.8908   0.96344716   -103.09628    3178.3569    4737.2908    6043.1761    4906.2055   -1374.7315   -499.27946   -489.12277    293.64085 
  165000       165000    293.63481    92391.171    5766.0463   0.96344716   -64.719133    3216.6665    6458.3721    5341.3834    5498.3834   -993.60266    1759.8222   -563.83564    293.63481 
  166000       166000    290.61737    92391.171    6293.2775   0.96344716   -93.187945    3154.4777    6150.3162    5621.9033    7107.6131   -833.50668   -264.87073   -614.30903    290.61737 
  167000       167000    300.56324    92391.171    3605.4911   0.96344716   -21.360452    3337.4509    3660.3971    3474.5853     3681.491   -846.72463    499.95243    1007.5439    300.56324 
  168000       168000    290.31342    92391.171    6202.7803   0.96344716    -41.06613    3203.2028    6263.5323    6031.9704    6312.8383   -1375.7738   -488.88159    489.25271    290.31342 
  169000       169000    291.20622    92391.171    4948.3046   0.96344716   -115.40071    3138.8454     5634.229    4849.2438    4361.4409   -998.45553    -12.89891    365.66005    291.20622 
  170000       170000     301.3547    92391.171    4948.7707   0.96344716   -25.076359    3342.5795    4293.6247    5700.4481    4852.2392   -1541.7686    812.22253   -58.752589     301.3547 
  171000       171000    292.98846    92391.171    4221.4254   0.96344716   -77.865969    3196.2968    2997.6987    4827.0478    4839.5297   -420.76608   -751.87708   -266.84275    292.98846 
  172000       172000    294.71194    92391.171    5951.4011   0.96344716   -95.454943    3197.9678    4164.7276    6476.3225    7213.1531   -269.51916    908.16521    330.43499    294.71194 
  173000       173000    292.03084    92391.171    4663.7757   0.96344716   -41.105526    3222.3557    5975.9352    3893.1268     4122.265   -1110.4415    1692.5437   -1296.3961    292.03084 
  174000       174000    291.07824    92391.171    4913.4707   0.96344716    47.237338    3300.0532    6156.6636    4606.5928    3977.1556    463.92762   -72.661985   -445.61219    291.07824 
  175000       175000    289.40053    92391.171    4767.6973   0.96344716   -56.402669    3177.6647    5540.8919    4479.4303    4282.7697   -1197.6745   -418.25503    773.31076    289.40053 
  176000       176000    291.52421    92391.171    5194.9252   0.96344716   -23.259276    3234.5403    5306.0506    4262.4556    6016.2693   -2213.5108    1104.0613   -707.01506    291.52421 
  177000       177000    297.97573    92391.171    4752.8006   0.96344716   -166.79406    3163.1017    4328.7922    3668.4986     6261.111   -467.53108   -1162.2209    366.32175    297.97573 
  178000       178000    297.08528    92391.171    5764.8203   0.96344716   -41.968435    3277.9765     7265.042    5232.1106    4797.3082    -775.8461    202.03933    1275.9138    297.08528 
  179000       179000    288.42941    92391.171    6560.9975   0.96344716   -49.868491    3173.3466    6862.6989    7503.8805    5316.4133   -695.63055     476.5285    101.50697    288.42941 
  180000       180000    293.12224    92391.171    4595.9222   0.96344716   -112.16843    3163.4892    4636.9336    4411.2304    4739.6025   -930.33222   -567.97995    -292.2285    293.12224 
  181000       181000    296.46796    92391.171    4949.4516   0.96344716    15.367033    3328.4133    3354.5643    6343.4434     5150.347   -826.91893    644.76241   -97.657225    296.46796 
  182000       182000    288.67137    92391.171    4991.6862   0.96344716   -11.197397    3214.7216     5235.273    4146.8966     5592.889   -715.82095   -609.35872   -461.18786    288.67137 
  183000       183000    290.91207    92391.171    5462.1678   0.96344716   -14.303394    3236.6555    4262.5316    6916.8539     5207.118   -2230.0439   -354.75032    565.16757    290.91207 
  184000       184000    290.10948    92391.171    4837.1495   0.96344716   -108.53343    3133.4565    4480.1332    4768.0805    5263.2347   -256.94381    1275.6329     717.0329    290.10948 
  185000       185000    295.79296    92391.171    5864.8945   0.96344716    -67.39214    3238.1111    6397.5546    5372.8585    5824.2704   -746.25716    661.39034   -898.46658    295.79296 
  186000       186000    291.66757    92391.171    5556.6963   0.96344716   -82.909357    3176.4923    5987.8087    6028.0953    4654.1848   -1616.5488    1389.0348    703.26005    291.66757 
  187000       187000    292.18696    92391.171    3689.0324   0.96344716    -2.290441    3262.9154     4566.593    3677.9902    2822.5141   -67.737628    129.40138   -708.07191    292.18696 
  188000       188000    288.91587    92391.171    4104.6085   0.96344716   -75.514279     3153.137    3213.7087    4498.3694    4601.7474   -307.55135   -845.74724   -197.95007    288.91587 
  189000       189000    292.01881    92391.171    5161.2736   0.96344716   -54.271912    3209.0549    5130.5295    5078.2588    5275.0327   -1253.3323    -414.5537    1234.9518    292.01881 
  190000       190000    290.98836    92391.171     4643.878   0.96344716   -37.181584    3214.6299    4373.5099    5357.4503    4200.6737   -1628.7321    292.12346   -311.78018    290.98836 
  191000       191000    287.34931    92391.171    3633.2339   0.96344716   -29.904797    3181.2401    3047.0263    4787.7221    3064.9532   -766.30135    354.55267   -21.645794    287.34931 
  192000       192000    290.87311    92391.171    3495.6705   0.96344716    68.610107    3319.1336    3490.3116    3365.3358    3631.3639    -1007.126    317.16272    78.312803    290.87311 
  193000       193000    290.11414    92391.171    2957.1691   0.96344716   -63.092059      3178.95    2884.5276    2751.8872    3235.0925   -1734.3366    303.78546    827.29295    290.11414 
  194000       194000    295.11215    92391.171    5670.3121   0.96344716   -69.125637    3228.7694    5677.0635    6158.5098    5175.3629   -1556.6875    827.72833    229.81686    295.11215 
  195000       195000    294.51624    92391.171    4700.8249   0.96344716   -69.137622    3222.0981    4115.3719     4684.628    5302.4747    -3527.701   -240.35952   -399.86858    294.51624 
  196000       196000      298.804    92391.171    4519.6264   0.96344716   -49.404112    3289.7476    3621.1575    5449.1501    4488.5717   -768.77476    1163.3969   -51.496057      298.804 
  197000       197000    291.22322    92391.171    5704.3834   0.96344716   -98.159375    3156.2767    4039.8788    6853.2128    6220.0586    -426.3086   -1128.3838   -257.33672    291.22322 
  198000       198000    297.26271    92391.171    4693.7072   0.96344716   -49.803682     3272.124    5480.2183    4395.0123    4205.8911   -2071.8391   -634.18946    838.47142    297.26271 
  199000       199000    286.86127    92391.171    4315.2152   0.96344716   -28.489733    3177.2013    3775.9117    4198.3271    4971.4067   -1386.0119   -1000.9167    201.31655    286.86127 
  200000       200000    293.55861    92391.171    5807.4452   0.96344716   -6.7841245      3273.75    6059.1023    6707.2249    4656.0085   -1173.4979   -640.82326    1439.5886    293.55861 
  201000       201000    291.00056    92391.171     4919.035   0.96344716   -53.495787    3198.4521    5292.9157    5472.9828    3991.2064   -690.36409    750.43903   -370.78665    291.00056 
  202000       202000    297.82589    92391.171    4886.7761   0.96344716   -23.214487    3305.0068    5788.6525    5515.4671    3356.2088   -1173.9128   -656.22916    347.22498    297.82589 
  203000       203000    292.10386    92391.171    4138.1586   0.96344716    -120.5882    3143.6891     3759.351     3755.683     4899.442   -1134.6976     20.73478    58.774808    292.10386 
  204000       204000    294.48082    92391.171    4034.4273   0.96344716    45.104288    3335.9443    4432.5177    4753.7722     2916.992     -715.615    73.142938   -752.64929    294.48082 
  205000       205000    291.21637    92391.171     4032.167   0.96344716   -84.299625    3170.0599    3450.4689    4900.7955    3745.2366   -1843.6271     292.0461    1380.2248    291.21637 
  206000       206000    295.65259    92391.171    3770.5781   0.96344716   -89.698181    3214.2363    5462.2394    3167.2068    2682.2883   -532.21693    435.18082   -365.89736    295.65259 
  207000       207000    289.27831    92391.171    4132.8983   0.96344716   -60.265175    3172.4363    3765.2723    4704.5952    3928.8273   -977.06433    168.68416    809.15899    289.27831 
  208000       208000    296.20784    92391.171    5162.3026   0.96344716   -44.380281    3265.7592    4540.9283    4899.2739    6046.7057   -1087.4995    421.16737    1011.8946    296.20784 
  209000       209000    297.82044    92391.171    4276.7193   0.96344716   -65.174662    3262.9857    4702.4342    4423.8909    3703.8329   -777.03617   -192.63766    32.477185    297.82044 
  210000       210000    292.99347    92391.171    6347.6755   0.96344716    -48.30267    3225.9161    6145.7771    7204.3403     5692.909   -838.21487    310.88511   -156.16775    292.99347 
  211000       211000     292.8486    92391.171    5012.9706   0.96344716    -62.99354    3209.6062    5988.4071    5734.5853    3315.9193   -842.32144    93.418967   -611.38695     292.8486 
  212000       212000    292.22638    92391.171    3556.2601   0.96344716    6.3771404    3272.0236    3461.5471    4062.6916    3144.5414   -1649.1393    754.95185    344.59526    292.22638 
  213000       213000    290.97882    92391.171    5057.0904   0.96344716   -117.49388     3134.211     5476.519    5068.8622    4625.8901   -1747.0186    435.82403    192.46259    290.97882 
  214000       214000    297.35881    92391.171    3824.2198   0.96344716   -34.550778    3288.4508    3369.4599     4259.191    3844.0086   -374.02534    -495.4851   -453.16592    297.35881 
  215000       215000    293.96051    92391.171    4552.4438   0.96344716   -145.42009    3139.6053    5301.5397    4520.9408    3834.8509   -1361.1656   -54.886969    366.38584    293.96051 
  216000       216000    293.60917    92391.171    5457.0051   0.96344716    35.276594    3316.3757    5116.2191    4891.2432    6363.5531   -735.46172   -857.91385   -673.61102    293.60917 
  217000       217000    294.31016    92391.171    3195.8417   0.96344716   -103.80421    3185.1285    2133.4602     4031.438    3422.6269   -233.02555   -1250.5512    501.58853    294.31016 
  218000       218000    296.28822    92391.171    6444.5819   0.96344716    19.328857    3330.3666    6418.2328    6874.1105    6041.4023   -2247.2535    643.39576   -202.80489    296.28822 
  219000       219000    291.86096    92391.171    4977.6244   0.96344716   -63.276184    3198.2867     6815.464    4858.7213    3258.6878   -1043.7113    57.164461   -1314.4568    291.86096 
  220000       220000    297.04728    92391.171    5469.3631   0.96344716   -65.655968    3253.8643    6203.7973     4888.496    5315.7961   -403.46462    349.23225   -1087.3393    297.04728 
  221000       221000    292.25016    92391.171    5806.0959   0.96344716   -13.054079     3252.858    5837.7798    7013.2871    4567.2208   -976.35683    724.93335    408.11289    292.25016 
  222000       222000     293.5138    92391.171    5143.9993   0.96344716   -85.227547    3194.8058    6178.1566    4692.8075    4561.0339   -1575.0978   -473.55683   -656.42301     293.5138 
  223000       223000    290.90312    92391.171    3205.0601   0.96344716   -2.9473534    3247.9116    2632.2198       3483.7    3499.2605   -1878.1058    451.65001   -392.42543    290.90312 
  224000       224000    293.69288    92391.171    4540.3477   0.96344716   -56.350246    3225.6844    5257.1501    4653.3071    3710.5859   -992.05146    328.64152     516.3961    293.69288 
  225000       225000    296.65919    92391.171     4397.447   0.96344716   -63.990034    3251.1933    3982.8363    4819.7963    4389.7085   -537.21147   -171.92965    257.31272    296.65919 
  226000       226000    288.43742    92391.171    5715.4569   0.96344716   -81.976281    3141.3283     5699.039    5669.1713    5778.1603   -6.4766525    554.20681   -894.36744    288.43742 
  227000       227000    292.98742    92391.171     3880.173   0.96344716   -11.918977    3262.2321    3170.5778    3233.0168    5236.9243   -1451.4151   -908.04925   -1820.8784    292.98742 
  228000       228000    289.07634    92391.171    3412.2547   0.96344716   -111.68306    3118.7615     3378.303      3072.87     3785.591   -192.72429    888.74745    422.55586    289.07634 
  229000       229000    295.70294    92391.171    5191.3526   0.96344716   -8.0311788     3296.466    5152.3064    4386.8877    6034.8638   -495.29322    166.23668   -307.38911    295.70294 
  230000       230000    287.24381    92391.171    5945.3196   0.96344716   -33.001445    3176.9644    5055.9156     5874.903    6905.1403   -974.00738    1138.3296    626.32816    287.24381 
  231000       231000    297.06103    92391.171    3820.1874   0.96344716   -54.750074    3264.9238    2489.4089    3587.4508    5383.7026    -1118.696   -78.659532    616.82379    297.06103 
  232000       232000    294.64056    92391.171    5866.1234   0.96344716   -102.45475    3190.1703    5151.9227    6885.1787    5561.2686   -145.94136    -11.84391   -824.13548    294.64056 
  233000       233000    295.38738    92391.171    3804.9476   0.96344716   -83.588391    3217.3823    2802.8228    4390.9279    4221.0921   -991.69671   -1052.5719   -1507.0373    295.38738 
  234000       234000    293.61668    92391.171    5852.8553   0.96344716   -49.577117     3231.606    5564.1444    7361.8979    4632.5236   -630.02726   -590.15204    349.46678    293.61668 
  235000       235000    293.72948    92391.171    3856.9948   0.96344716   -99.073621      3183.37    4614.7592    3616.8319    3339.3932   -471.36473   -294.97849    202.03809    293.72948 
  236000       236000    294.14928    92391.171    4143.4511   0.96344716   -110.00462    3177.1303    4249.8857    4224.4281    3956.0395   -1036.9674   -556.04112   -552.98349    294.14928 
  237000       237000    288.72379    92391.171    5837.2774   0.96344716   -29.527864     3196.977    5805.7355    6478.5133    5227.5835   -502.77096     989.4671    16.414294    288.72379 
  238000       238000    298.33826    92391.171    4431.6727   0.96344716   -140.32172    3193.6253    3966.6806    4881.5402    4446.7975   -233.83326   -348.95759    8.5415262    298.33826 
  239000       239000    291.54672    92391.171    5431.6563   0.96344716    -63.31315    3194.7381    5532.7023    5261.1062    5501.1603   -1602.6635   -25.129683   -1533.9228    291.54672 
  240000       240000    294.23048    92391.171     5021.684   0.96344716   -106.90333     3181.139    4926.3783    5528.1143    4610.5595   -1398.9347    938.18668   -111.62155    294.23048 
  241000       241000    289.77169    92391.171    4880.1904   0.96344716   -62.828055    3175.3871     4256.245    5555.4912     4828.835   -1018.6841   -312.45852    1152.6696    289.77169 
  242000       242000    291.01106    92391.171    4767.3454   0.96344716   -42.255366    3209.8097    4591.5405    4839.6987    4870.7971   -318.51563    130.84426   -836.97725    291.01106 
  243000       243000    286.69851    92391.171    5471.7665   0.96344716   -48.615798    3155.2563    5866.7617    5101.6861    5446.8515   -1549.0885    529.51843    607.27935    286.69851 
  244000       244000    296.89855    92391.171    6431.5679   0.96344716   -1.8861065     3315.972    6678.3945    6602.7422     6013.567   -2050.6204    1061.0529    1205.1625    296.89855 
  245000       245000    291.48678    92391.171    5233.2543   0.96344716   -51.023527    3206.3578    5971.2329    4668.6294    5059.9006   -319.66868   -1192.0153   -1238.9627    291.48678 
  246000       246000    293.96145    92391.171    5102.8213   0.96344716   -55.908539    3229.1274    5540.1226    5161.6822     4606.659   -90.807882   -246.63737   -563.78353    293.96145 
  247000       247000     295.2787    92391.171     4550.282   0.96344716   -2.7378816    3297.0184    4208.7125    4687.1432    4754.9902   -1240.6581    586.67561    56.569557     295.2787 
  248000       248000    296.05486    92391.171    5285.9277   0.96344716   -93.180626    3215.2493    5636.0907     6049.578    4172.1143   -1153.2514    955.68001    598.55508    296.05486 
  249000       249000    290.70889    92391.171    3342.1531   0.96344716    45.866324    3294.5547    2918.1384    3940.9507    3167.3702   -1622.7135    1262.7766   -165.17805    290.70889 
  250000       250000    294.99515    92391.171    5788.6384   0.96344716    -39.76668    3256.8209    7014.6156    5103.3284    5247.9712   -1805.1581    866.39689    118.56478    294.99515 
  251000       251000    288.25091    92391.171     5529.244   0.96344716   -72.175291    3149.0451    6311.7523    4406.7854    5869.1943   -1588.5394    -162.9744    1161.4068    288.25091 
  252000       252000     290.7029    92391.171    4902.4483   0.96344716    22.590815    3271.2123    4294.0914    5557.5682    4855.6855   -1694.7575    66.399157    827.94152     290.7029 
  253000       253000    301.14246    92391.171     4136.108   0.96344716   -41.178392    3324.1057    4238.1146    3423.7714    4746.4379   -934.95097     230.8695    270.41117    301.14246 
  254000       254000      288.962    92391.171    5451.8903   0.96344716   -63.912742     3165.254    5046.4308    6280.4969    5028.7432   -240.17897   -141.71559   -3.4297022      288.962 
  255000       255000    294.87509    92391.171    4319.2084   0.96344716   -21.265331    3273.9806     5559.261    5121.7456    2276.6185   -1334.9574   -1320.6809    621.43851    294.87509 
  256000       256000    295.16603    92391.171    4628.1835   0.96344716   -15.061919    3283.4353    4648.9749    4064.8222    5170.7536   -334.85937    583.10609    229.49593    295.16603 
  257000       257000    296.49942    92391.171    3382.0974   0.96344716   -77.225215    3236.1727     2762.833    3492.5656    3890.8936   -320.14707    358.38409    666.09372    296.49942 
  258000       258000    291.90312    92391.171    5750.6433   0.96344716   -20.868676    3241.1653    5394.4513    6304.6733    5552.8054   -910.71849   -743.76469   -441.51302    291.90312 
  259000       259000    288.38014    92391.171    4367.3675   0.96344716   -32.094572    3190.5699    3925.7891    4038.4806    5137.8328   -882.35581    724.40792   -1694.7753    288.38014 
  260000       260000    295.02591    92391.171    3969.6279   0.96344716   -22.287134    3274.6442    4402.4174    3884.1509    3622.3153   -1852.9994   -382.35477   -229.00866    295.02591 
  261000       261000    291.60282    92391.171    4977.8495   0.96344716   -107.43562    3151.2425    4695.9571    6371.1239    3866.4674   -152.91762   -557.41033   -13.377032    291.60282 
  262000       262000    295.03219    92391.171    5572.9737   0.96344716   -6.3387726    3290.6627    4755.3114    6398.1063    5565.5035   -858.07438    854.26163    844.40753    295.03219 
  263000       263000    279.76278    92391.171    5138.5198   0.96344716    9.5096433    3135.8746    4997.9802    3974.4691    6443.1101   -1167.3551    253.42742    626.06022    279.76278 
  264000       264000    293.09999    92391.171     4921.547   0.96344716    31.065658    3306.4747    5380.9636    4747.8037    4635.8737   -984.58094   -240.07739   -58.179495    293.09999 
  265000       265000    293.53313    92391.171    4619.6227   0.96344716    -135.1642    3145.0852    3820.3647    5656.8331    4381.6704   -1293.8859   -283.66189    901.48555    293.53313 
  266000       266000    295.71669    92391.171    4630.4879   0.96344716   -25.023939    3279.6269    3446.0707    5455.9313    4989.4617   -1011.6874    130.36395   -885.84186    295.71669 
  267000       267000    284.23491    92391.171    4539.3959   0.96344716    20.908498    3197.2497    4707.9439    4890.0724    4020.1712   -645.98082    313.35243    1665.5009    284.23491 
  268000       268000    298.09925    92391.171    5044.6223   0.96344716   -52.417584    3278.8585    5353.7907    5115.4191     4664.657   -824.03909   -735.38642   -365.66128    298.09925 
  269000       269000    287.16182    92391.171    4353.9057   0.96344716   -79.041686     3130.008    4782.3097    3561.2386    4718.1688   -1590.8943     88.55996   -176.88396    287.16182 
  270000       270000    292.70576    92391.171    4596.0932   0.96344716    -9.798396    3261.2051    4424.5679    5711.6467     3652.065   -1573.6665    -279.8894    -30.63509    292.70576 
  271000       271000    292.39345    92391.171    3692.9071   0.96344716   -124.09227    3143.4212     5264.165    2475.3455    3339.2109   -1938.4413    979.76251   -385.74783    292.39345 
  272000       272000    294.42613    92391.171    4691.2984   0.96344716   -5.4269959    3284.8017    3948.6863    4853.2345    5271.9743   -1205.4428    517.00915   -75.868095    294.42613 
  273000       273000    290.29938    92391.171    5728.2631   0.96344716    20.951711    3265.0637    6123.0847    5473.2154    5588.4892   -804.91332   -55.861671   -1808.8759    290.29938 
  274000       274000    284.52218    92391.171    5187.6501   0.96344716    54.570249    3234.1218    5640.1656    5889.1425    4033.6422    -1194.973    1123.9303   -111.17972    284.52218 
  275000       275000    293.56487    92391.171    4754.2937   0.96344716    16.238956    3296.8431    5122.8014    3921.5598      5218.52   -219.84044    1281.0207   -484.60108    293.56487 
  276000       276000    291.22838    92391.171     4679.078   0.96344716   -112.43718    3142.0565    3370.6052    4591.1524    6075.4764   -1127.5472   -799.30516   -461.04383    291.22838 
  277000       277000     292.6559    92391.171    4794.1672   0.96344716    113.30995    3383.7563    4820.8066     5738.906    3822.7889   -69.713936   -307.74489    178.07395     292.6559 
  278000       278000    292.48469    92391.171    3936.2697   0.96344716   -91.060949    3177.4721    4680.9927    3556.3826    3571.4338   -1982.3642   -30.133152   -191.30991    292.48469 
  279000       279000    289.46269    92391.171    5170.5232   0.96344716    36.476093    3271.2381    3471.5595    6405.6882    5634.3218   -1489.3297   -1304.6006   -972.43325    289.46269 
  280000       280000    297.18514    92391.171     2884.071   0.96344716   -80.882038    3240.1788    2636.7937    3368.9345    2646.4849   -880.62105    585.86835   -44.622707    297.18514 
  281000       281000    296.78308    92391.171    4703.4435   0.96344716   -45.628903    3270.9389    4195.8581    4693.1054    5221.3669    258.39509    286.93682   -352.02618    296.78308 
  282000       282000    285.59862    92391.171    4389.4017   0.96344716   -79.881072    3111.6998    3720.4121    5135.3717    4312.4211   -2554.6045   -154.03086    -948.3884    285.59862 
  283000       283000    296.75054    92391.171    4484.4488   0.96344716    62.587097    3378.7913    5071.3711    4019.0462    4362.9292   -1264.4136   -161.36709   -193.06273    296.75054 
  284000       284000    297.37721    92391.171    4734.9383   0.96344716   -148.21598    3174.9913    5364.3992    5636.2443    3204.1714   -626.22179   -366.23619   -437.78135    297.37721 
  285000       285000    293.67744    92391.171    5354.6257   0.96344716    7.0403302    3288.9024    6123.6202    5107.4085    4832.8485    715.90399     868.1875    359.10648    293.67744 
  286000       286000    296.33673    92391.171    4527.9834   0.96344716   -10.911447    3300.6683     5241.525      3933.46    4408.9652   -763.82044   -489.92989   -521.23217    296.33673 
  287000       287000    283.70333    92391.171     5767.704   0.96344716   -19.193635    3151.2072    6385.4322    5783.5715    5134.1083   -1471.9229   -926.25871   -1286.8518    283.70333 
  288000       288000    300.87353    92391.171    4817.4225   0.96344716   -41.277223    3321.0016    5134.7157    4590.0163    4727.5354   -1332.1302    1178.7247   -542.23151    300.87353 
  289000       289000     296.7967    92391.171    4517.2839   0.96344716    -39.79963    3276.9204    4676.9534    4458.6234    4416.2748    -1359.493   -928.71946     69.49534     296.7967 
  290000       290000    283.49165    92391.171    6548.4546   0.96344716    33.501288    3201.5366    6737.4192    6033.3709    6874.5737    72.279493   -710.00735   -1276.3084    283.49165 
  291000       291000     295.8973    92391.171    5785.0603   0.96344716   -23.717237    3282.9519    5627.6121    6014.2543    5713.3144   -1567.3857    149.90101   -328.85435     295.8973 
  292000       292000    295.74761    92391.171    4895.8888   0.96344716   -34.205533    3270.7908    5517.6776    4369.4492    4800.5395   -908.80523   -102.22061   -591.57213    295.74761 
  293000       293000    293.51035    92391.171    5380.4131   0.96344716   -37.370355    3242.6245     6605.535    4737.0006    4798.7037   -998.35395    79.359555   -155.86719    293.51035 
  294000       294000     296.9479    92391.171    3991.2638   0.96344716    37.369707    3355.7794    4809.5094    3908.7248    3255.5572     -1143.36   -547.77984    569.79937     296.9479 
  295000       295000    294.58471    92391.171     4657.501   0.96344716   -55.782915     3236.218     5025.195    4262.6689     4684.639    -946.7004   -372.38968   -781.21423    294.58471 
  296000       296000    296.95776    92391.171    5998.7043   0.96344716   -15.802211    3302.7177    6851.4872    5817.3577    5327.2681   -1833.8152    231.11305    533.10284    296.95776 
  297000       297000    292.93093    92391.171    3486.3876   0.96344716    29.158384    3302.6781    4765.7682    3067.4019    2625.9927   -1595.9257   -306.06164    491.91512    292.93093 
  298000       298000    293.67765    92391.171    4300.9189   0.96344716    -127.5866    3154.2779    5118.7307    5033.5124    2750.5135   -501.90857    29.494598   -1713.6225    293.67765 
  299000       299000    288.95964    92391.171    6341.3196   0.96344716      121.483    3350.6234    6442.4837     5967.751    6613.7241   -169.84296   -1155.5572    1213.6574    288.95964 
  300000       300000    295.20114    92391.171    4684.2109   0.96344716   -22.485124    3276.4044    5630.2773    3807.0264    4615.3291   -1522.1799    713.59321    68.991783    295.20114 
  301000       301000     293.6288    92391.171    4714.8913   0.96344716   -31.147315    3250.1712    3326.2891     4835.724    5982.6607   -939.84701   -257.88928   -833.08212     293.6288 
  302000       302000    297.05285    92391.171    3839.2663   0.96344716   -50.839615    3268.7429    4107.6495    4435.0365    2975.1129     391.4758   -701.32648    518.55259    297.05285 
  303000       303000    294.07847    92391.171    5173.6559   0.96344716   -41.000076    3245.3435    4558.1152    7121.5213    3841.3313   -638.51855    72.048611    347.59694    294.07847 
  304000       304000    294.37949    92391.171    4050.4217   0.96344716    83.172791    3372.8804    3931.8997     3751.782    4467.5834   -743.19831    827.47723    -536.8482    294.37949 
  305000       305000     292.4935    92391.171    4885.4707   0.96344716   -186.05429    3082.5773    4062.4554    5807.0004    4786.9562   -1513.3167   -346.17159   -490.69709     292.4935 
  306000       306000    289.73464    92391.171    5169.2393   0.96344716    73.175637    3310.9768    4831.4605    5793.0272    4883.2301    57.267543    546.12751    -254.5095    289.73464 
  307000       307000    290.58723    92391.171      5491.15   0.96344716   -73.460663    3173.8681    5210.4494    6266.9545    4996.0461   -1226.6561   -593.74953   -83.700158    290.58723 
  308000       308000     298.1271    92391.171    4964.0347   0.96344716    59.432353    3391.0197    5226.8439    4480.7834    5184.4768   -1418.5869   -982.69149    596.59576     298.1271 
  309000       309000    287.98685    92391.171    4405.4382   0.96344716   -79.830404    3138.4391    3664.2563    4721.5153    4830.5429   -1460.8351   -725.00667    1852.6614    287.98685 
  310000       310000     300.7868    92391.171    3584.9806   0.96344716     4.598215    3365.9079    3184.1104     3645.861    3924.9703    -2511.711    685.99133     794.3995     300.7868 
  311000       311000    295.92922    92391.171    6016.1619   0.96344716    -29.54862    3277.4772    5809.2977    6251.1287    5988.0593   -1302.0315    141.00377    78.885495    295.92922 
  312000       312000    291.64321    92391.171    4701.4158   0.96344716    -3.254982    3255.8745    5088.0913     4655.026    4361.1301   -688.66352    596.90241   -461.96805    291.64321 
  313000       313000    293.64069    92391.171    4928.3112   0.96344716   -15.411631    3266.0398    4954.9578    6220.0542    3609.9215   -308.59187    256.57496    298.05725    293.64069 
  314000       314000    290.73511    92391.171    4243.3826   0.96344716    11.225785    3260.2071    3399.9708    5006.6414    4323.5356   -1362.5025    -386.2456    1175.9576    290.73511 
  315000       315000    295.84582    92391.171    4446.3434   0.96344716   -38.683461    3267.4105    2876.0032    4575.2994    5887.7275   -2701.6378    697.27553    248.01206    295.84582 
  316000       316000    296.14948    92391.171    4635.5622   0.96344716   -39.001802    3270.4855    3955.2019    5544.5085    4406.9764   -1211.6515   -919.09085   -414.25641    296.14948 
  317000       317000     296.0865    92391.171    4180.2133   0.96344716   -28.031571    3280.7519    2546.8697    5253.4573    4740.3129   -2049.5753   -46.554749   -153.62627     296.0865 
  318000       318000    290.77783    92391.171    5548.3091   0.96344716   -104.77383     3144.685    7451.8717    5507.1344    3685.9211   -2041.7787    381.84477    252.96542    290.77783 
  319000       319000    297.35155    92391.171    3698.1633   0.96344716   -3.4272952    3319.4932    3693.7687    3386.5526    4014.1686   -448.34095    278.55293   -622.40707    297.35155 
  320000       320000    294.06268    92391.171     4790.911   0.96344716   -133.62452    3152.5427    3917.2054    6384.1356    4071.3921   -2098.8493   -625.80117   -171.17301    294.06268 
  321000       321000      299.978    92391.171    3622.7919   0.96344716    33.108779      3385.38    3952.5517    3516.4382    3399.3858   -1470.5472   -130.33501   -602.03397      299.978 
  322000       322000    289.82841    92391.171    6296.1402   0.96344716   -107.34296     3131.506    5969.1153    6179.0932    6740.2121    50.209022    360.33611    625.55574    289.82841 
  323000       323000    292.03888    92391.171    5547.6927   0.96344716    68.417249    3331.9684    4721.6038    5878.0519    6043.4224   -324.98224   -304.12154    191.93851    292.03888 
  324000       324000    293.77396    92391.171     4465.212   0.96344716    9.7188363    3292.6596     3920.156    4928.1491    4547.3311   -856.12159    219.92468   -798.41436    293.77396 
  325000       325000    295.81713    92391.171    5996.6209   0.96344716   -74.311528    3231.4618    7098.7076    4837.4613    6053.6936   -1588.2872    311.99565     665.6968    295.81713 
  326000       326000    293.28286    92391.171    4855.4233   0.96344716    28.962383    3306.4151    5708.7407    3749.4412    5108.0879   -430.58874    1025.7465    461.68044    293.28286 
  327000       327000    287.02992    92391.171    4579.5968   0.96344716    24.800875    3232.3765    3140.5913      6209.48     4388.719   -515.89188    497.71839    -394.3652    287.02992 
  328000       328000    295.59083    92391.171    5615.8251   0.96344716    -31.99536     3271.249    6380.3823    6217.7634    4249.3296   -1247.0798   -435.55362   -714.44312    295.59083 
  329000       329000     292.1105    92391.171     4017.274   0.96344716    -17.83353    3246.5179    4059.9852    4820.9861    3170.8506   -1087.3698    150.61478   -613.43354     292.1105 
  330000       330000    293.85707    92391.171    4707.3167   0.96344716   -54.820381     3229.049    3648.6903    5906.0962    4567.1635   -1137.3384    208.18366    61.107427    293.85707 
  331000       331000    288.71752    92391.171    5985.4241   0.96344716   -66.179091    3160.2556    5773.9549    6011.6635     6170.654   -1880.4421    119.69013    267.88865    288.71752 
  332000       332000    301.68588    92391.171    4756.1411   0.96344716    35.841011    3407.1979    4574.6236    5965.1804    3728.6193   -616.59432    1336.9522   -1058.5155    301.68588 
  333000       333000    295.39206    92391.171    4235.9315   0.96344716   -93.828478    3207.1946    3464.1422    4951.9609    4291.6916   -1345.9835    578.60695   -430.21723    295.39206 
  334000       334000    294.22063    92391.171    4444.2854   0.96344716   -9.0688143    3278.8635    4453.0314    5617.7446    3262.0803    97.650547    335.07638   -1107.3277    294.22063 
  335000       335000    294.47589    92391.171    4645.7261   0.96344716   -11.921748     3278.863    4373.7877     5233.482    4329.9084   -1293.2567     283.0081   -1116.9127    294.47589 
  336000       336000    294.87325    92391.171    3351.3509   0.96344716   -56.829319     3238.396    2992.8426    4007.3411    3053.8689   -792.84916    186.33799    322.99074    294.87325 
  337000       337000    293.56443    92391.171    5620.9179   0.96344716   -23.325133    3257.2741     6256.491    6898.4691    3707.7936   -321.90664    660.77605   -526.86086    293.56443 
  338000       338000    291.89127    92391.171    4187.6614   0.96344716    54.039906    3315.9415    4751.7016     4733.567    3077.7156   -2461.0594   -256.95734   -134.89573    291.89127 
  339000       339000    295.61072    92391.171    4849.4751   0.96344716   -50.023385    3253.4432    4385.0284    5340.1828    4823.2141   -795.53999   -150.23128   -302.93598    295.61072 
  340000       340000    290.92218    92391.171    4703.1635   0.96344716   -4.8791165    3246.1928    5618.8373    6033.9844    2456.6689   -1098.9396     202.9653    723.44864    290.92218 
  341000       341000    300.24107    92391.171    5402.6809   0.96344716    10.871384    3366.0824     4284.678    6854.6213    5068.7433    -451.1751   -737.49564    404.40764    300.24107 
  342000       342000    290.38653    92391.171    5574.4888   0.96344716   -39.842891    3205.2431    6367.5792    5707.4666    4648.4205   -1626.9157    -952.2646   -526.66638    290.38653 
  343000       343000     290.8816    92391.171    4636.6241   0.96344716   -45.631334    3204.9871    4340.6861    5589.2568    3979.9293   -1416.7729    35.145135    841.39984     290.8816 
  344000       344000    291.36252    92391.171    4523.5734   0.96344716    72.946364     3328.939    4043.0611    6272.2878    3255.3712   -1463.1311    554.42685    362.09823    291.36252 
  345000       345000    287.19548    92391.171    5978.4975   0.96344716    6.5913127    3216.0171     5312.574    5575.8022    7047.1162   -398.17016   -1406.5479   -794.33529    287.19548 
  346000       346000    295.86917    92391.171    3543.0488   0.96344716   -18.364345    3287.9905    3372.9903    3983.3458    3272.8104   -1215.0831    1092.3643    561.50829    295.86917 
  347000       347000    294.29721    92391.171    3923.4531   0.96344716   -3.1308006    3285.6573    4573.8384    4281.1448    2915.3761   -1368.6954    94.796942    788.20285    294.29721 
  348000       348000    289.38363    92391.171    2758.5671   0.96344716   -43.065977    3190.8126    2655.1316    3832.3561    1788.2137   -2064.5325    324.28119    128.40641    289.38363 
  349000       349000     295.0612    92391.171    4898.7477   0.96344716    35.172649    3332.4984    4344.8673    5536.4045    4814.9713   -540.34865    247.13933    337.08655     295.0612 
  350000       350000    291.40612    92391.171    4935.6643   0.96344716   -14.413079    3242.0669    5493.9828    4529.0069    4784.0032   -1118.4549   -78.622568   -1234.3322    291.40612 
  351000       351000    286.21828    92391.171    5004.5875   0.96344716     -26.9345    3171.5711     5326.672    4910.7814    4776.3091    133.85068    115.08321    -277.4415    286.21828 
  352000       352000    293.14018    92391.171     5557.885   0.96344716    103.79332    3379.6515    5752.6085    5579.4482    5341.5982   -1782.7597   -642.53477    381.00766    293.14018 
  353000       353000    290.24049    92391.171    4021.1957   0.96344716   -27.710538    3215.7435    4714.8429    3934.9259    3413.8184   -1483.4897   -640.48016    230.13118    290.24049 
  354000       354000    292.04618    92391.171    4954.8632   0.96344716    53.209587    3316.8422    4441.7789    5092.1846    5330.6262   -564.56962    1.6310195   -489.26861    292.04618 
  355000       355000    288.87185    92391.171    5069.5994   0.96344716    50.723722     3278.883    5629.6474    3916.3328     5662.818   -227.56864    93.077579   -222.79084    288.87185 
  356000       356000    293.31933    92391.171    3536.6698   0.96344716    -23.38298    3254.4772    3489.3325     4024.608    3096.0688   -704.26888    809.26738   -180.09632    293.31933 
  357000       357000    294.71295    92391.171    5540.6745   0.96344716   -34.974268    3258.4597    4269.8475     6572.607    5779.5689   -1292.9036    36.852976   -1170.4886    294.71295 
  358000       358000    299.40512    92391.171    4707.0813   0.96344716     23.36453    3369.2338    4432.6026    4680.9775    5007.6638   -1001.8077   -324.67998   -301.07629    299.40512 
  359000       359000    286.97003    92391.171    3001.9049   0.96344716     50.21928    3257.1257    3248.5002    4064.1973    1693.0173   -1628.2295   -252.74749    117.84548    286.97003 
  360000       360000    293.69181    92391.171    4081.6868   0.96344716    3.6641911    3285.6869    3435.2816    5170.6378    3639.1412   -2318.1995    56.357916    400.31875    293.69181 
  361000       361000    292.01552    92391.171    4357.1343   0.96344716    -5.759693    3257.5304    2963.6589    4745.7585    5361.9856    580.73365    85.930771    2.5681058    292.01552 
  362000       362000    294.00544    92391.171    4912.9884   0.96344716    13.891435     3299.419    3919.9062    5406.3058    5412.7533   -894.13485   -1348.0065    6.7775396    294.00544 
  363000       363000    291.44956    92391.171    5071.4783   0.96344716 -0.020213724    3256.9452    3802.9708    4511.3633    6900.1007   -1148.0297   -1072.2599    397.93767    291.44956 
  364000       364000    292.13504    92391.171    5476.0177   0.96344716   -75.940947    3188.6848    6065.5002    4587.7611    5774.7917   -16.513503   -774.64364    336.19837    292.13504 
  365000       365000    299.42352    92391.171    4114.7339   0.96344716   -43.204379    3302.8705    4066.4011    4384.0884    3893.7122   -1120.3956   -516.94109   -140.41488    299.42352 
  366000       366000    288.54253    92391.171    5180.3024   0.96344716    58.747977    3283.2272    4056.0195    5987.1018     5497.786   -1412.6359    125.01393   -1191.5719    288.54253 
  367000       367000    290.63758    92391.171     4373.273   0.96344716   -63.254712    3184.6368    5602.9147    3814.5331    3702.3713   -2545.9647   -1033.9099    365.04117    290.63758 
  368000       368000    287.93538    92391.171    5205.2417   0.96344716    79.600014    3297.2943    5752.0111    5112.3511     4751.363    -1695.622   -568.88595    -312.8855    287.93538 
  369000       369000      291.648    92391.171    4554.2382   0.96344716   -65.323797    3193.8592    3577.6083    5123.6736    4961.4327   -932.23224    393.50617    516.05191      291.648 
  370000       370000    292.90414    92391.171    4362.3185   0.96344716    65.514645     3338.735    4508.8322    3409.7354    5168.3879   -1021.4303    1197.4623    322.92997    292.90414 
  371000       371000     296.5649    92391.171     5472.036   0.96344716   -90.564876    3223.5647    6484.7373    5981.2621    3950.1087   -719.09256    386.98029    206.16603     296.5649 
  372000       372000    295.91821    92391.171    5854.9577   0.96344716    -53.18567    3253.7171     6208.291    6109.0402    5247.5418    -40.09323    242.41439   -163.60848    295.91821 
  373000       373000    290.67714    92391.171    5616.2021   0.96344716    48.270112    3296.6037    5433.0258    6319.3874    5096.1931   -660.79056    847.95676   -431.96791    290.67714 
  374000       374000    286.78456    92391.171    4129.0591   0.96344716   -57.960971    3146.8728    3818.0543    4957.5598    3611.5633   -1388.1721   -183.23794    552.49298    286.78456 
  375000       375000    297.90823    92391.171     5976.277   0.96344716   -34.067159    3295.0742    4578.1768    5644.3283     7706.326   -896.62944   -334.03126    862.26337    297.90823 
  376000       376000    284.79133    92391.171    5291.6458   0.96344716   -40.224139    3142.3352      5786.26     4941.172    5147.5052   -754.10682   -1148.4482   -181.06305    284.79133 
  377000       377000    295.95161    92391.171    6152.3078   0.96344716    30.222285    3337.4984    6375.8204    6317.5882    5763.5148   -437.42735   -652.74933    13.317247    295.95161 
  378000       378000    291.51703    92391.171    4676.6967   0.96344716   -11.513727    3246.2056    4329.7833    4634.5339     5065.773   -156.68998    199.91065   -862.87167    291.51703 
  379000       379000    293.55122    92391.171    5107.3227   0.96344716    19.954634    3300.4062    4437.7231     5307.424    5576.8208   -1057.3891   -302.14965    390.87213    293.55122 
  380000       380000    299.95228    92391.171     5110.922   0.96344716    -2.565348    3349.4184    5178.5782    6736.6625    3417.5253   -823.93143      498.091     158.1123    299.95228 
  381000       381000    284.65771    92391.171    4137.1925   0.96344716   -42.950555    3138.1156    4150.7876    4248.4388    4012.3512   -324.30682   -716.51281   -494.59468    284.65771 
  382000       382000    295.03946    92391.171    6500.6372   0.96344716   -39.905908    3257.1768    6272.9064    6409.9181    6819.0871   -1508.3623   -496.56823    322.14172    295.03946 
  383000       383000    293.45434    92391.171    4175.0807   0.96344716   -19.461565    3259.9074    3536.7277    3796.7776    5191.7368   -849.97791    681.48103   -1393.6368    293.45434 
  384000       384000    285.65462    92391.171    5338.5091   0.96344716    15.573395    3207.7801    6185.8204    4473.7186    5355.9883   -603.82277   -210.48864    162.38908    285.65462 
  385000       385000    288.16734    92391.171    3924.7033   0.96344716  -0.34257103    3219.9439    3958.6082    4641.0419    3174.4599    -1692.756    347.96442   -191.03993    288.16734 
  386000       386000    290.54008    92391.171    4683.3799   0.96344716    -109.7868    3137.0151    3819.4334    4592.2388    5638.4674   -1338.5516   -522.72454    2.0371986    290.54008 
  387000       387000    298.00164    92391.171    4521.5625   0.96344716    23.966818    3354.1521    3804.2396    4105.4781    5654.9697   -1036.4396   -379.91728   -1590.4184    298.00164 
  388000       388000      296.612    92391.171    4198.7849   0.96344716   -28.300002     3286.356    4146.6798    5424.2916    3025.3834    48.240668   -614.17202   -1447.3993      296.612 
  389000       389000    290.89266    92391.171    4572.8815   0.96344716   -51.360869    3199.3811    4517.7247    4058.4413    5142.4787    -917.3466    719.20783    400.52389    290.89266 
  390000       390000    294.03308    92391.171    4602.8353   0.96344716   -1.0054283     3284.831    5699.7734    4495.5723    3613.1604   -1032.2951    185.55093    113.95551    294.03308 
  391000       391000    298.82562    92391.171    5044.7158   0.96344716   -22.016659    3317.3767     4934.437    5943.5558    4256.1545   -1697.1386    392.30002   -428.18762    298.82562 
  392000       392000    292.32379    92391.171    6141.1423   0.96344716   -23.601303    3243.1337    5870.5393    7691.8851    4861.0025    208.29627   -1336.4697   -494.07053    292.32379 
  393000       393000    291.65502    92391.171    5333.0284   0.96344716   -24.949492    3234.3119    4061.3677    6633.8706    5303.8469   -1479.9236   -141.71521    941.57307    291.65502 
  394000       394000    298.31697    92391.171    4752.3949   0.96344716   -9.4417237    3324.2673    4147.6158     4375.354     5734.215   -519.42003    190.13641    156.84384    298.31697 
  395000       395000    286.40354    92391.171    4579.3272   0.96344716   -1.1680669    3199.4077    5292.5999    4186.9147    4258.4672    -310.1434   -801.31657    -651.2777    286.40354 
  396000       396000    286.15203    92391.171    4690.6666   0.96344716    -61.79396    3135.9713    5508.6655    4704.9368    3858.3977   -925.94211   -796.39498    595.05682    286.15203 
  397000       397000     294.9227    92391.171      5035.65   0.96344716    52.205778    3347.9837    5378.9241    5883.3741    3844.6519   -1027.4761   -274.02018    618.93571     294.9227 
  398000       398000    292.09573    92391.171    4375.7841   0.96344716   -4.9236321    3259.2628    3627.7459    5005.1423    4494.4642   -1189.2635     -10.2176   -145.88439    292.09573 
  399000       399000    291.17923    92391.171    5734.9231   0.96344716    31.838308    3285.7827    6639.9359     4364.788    6200.0455   -1107.0849    7.4900699    -646.9376    291.17923 
  400000       400000    288.84303    92391.171    5381.5026   0.96344716     18.19862    3246.0359    5103.6106    5614.9644    5425.9329   -918.57882    1437.3034    382.10615    288.84303 
  401000       401000    292.88767    92391.171    5920.0667   0.96344716   -59.757514    3213.2788    5312.5911    5888.3999    6559.2091   -61.567995    121.93481   -750.01204    292.88767 
  402000       402000    290.78304    92391.171    3739.3104   0.96344716   -5.5888687    3243.9282    3192.7566    4020.5235    4004.6511   -1618.2494    488.93301    357.23535    290.78304 
  403000       403000    294.95188    92391.171    4549.1466   0.96344716   -47.550235    3248.5538    4569.3753    4512.8792    4565.1853   -163.19549    -330.7655   -361.15044    294.95188 
  404000       404000    292.53523    92391.171    3435.1079   0.96344716   -42.850353    3226.2474    3582.3687    3401.6131     3321.342   -1594.8462    1778.8875    289.87977    292.53523 
  405000       405000    296.11486    92391.171     5918.232   0.96344716   -70.377183    3238.7232    6508.7188    6476.8987    4769.0786   -434.51384    466.89008    1796.9832    296.11486 
  406000       406000    288.24265    92391.171    4922.6364   0.96344716   -10.644917    3210.4831    4505.6276    5603.6883    4658.5934   -1170.7362   -430.66279   -405.28524    288.24265 
  407000       407000    292.54528    92391.171    4112.5321   0.96344716    58.068671    3327.2788    2741.3586    5407.6357    4188.6021   -1574.6073   -243.36778    43.920037    292.54528 
  408000       408000    295.99542    92391.171    4783.0428   0.96344716   -65.404515    3242.3611    5306.9339    5244.3654    3797.8293   -1486.3335    113.20532    86.294554    295.99542 
  409000       409000    291.91731    92391.171    4670.2331   0.96344716    24.037832    3286.2303     4986.962     5356.123    3667.6144   -744.70969   -246.16701   -948.88533    291.91731 
  410000       410000     292.9464    92391.171    4031.1416   0.96344716   -40.686183    3233.0065    3461.9032    4499.8995     4131.622   -2142.1716   -609.01169   -61.935874     292.9464 
[...]
100050000   1.0005e+08    292.93468    92391.171    5289.6886   0.96344716   -31.290698     3242.271    6292.8408    5548.2804    4027.9446   -684.39509    587.04135    834.02769    292.96153 
100060000   1.0006e+08    302.28903    92391.171    4098.3848   0.96344716    19.883199    3397.9803    3954.1081    4500.4478    3840.5985   -805.63026   -630.41218   -94.976639      302.294 
100070000   1.0007e+08    296.85895    92391.171    4134.2492   0.96344716   -7.9497706    3309.4658    4368.1503    5180.8617    2853.7357    819.52186    210.58689   -353.54799    296.90524 
100080000   1.0008e+08    294.66808    92391.171    5012.3226   0.96344716     97.93782    3390.8704    5088.0706    5660.8477    4288.0496    587.16096   -747.34634    540.87326    294.70779 
100090000   1.0009e+08    294.45941    92391.171    4369.8418   0.96344716   -4.5139259    3286.0867    4183.6135    5832.4028    3093.5091   -247.42031   -982.87168    113.09856    294.46075 
100100000    1.001e+08    284.60861    92391.171    4582.7626   0.96344716   -31.093698    3149.4237    4117.4759    4435.9658    5194.8463   -1461.7039   -363.42533   -603.16501    284.58516 
100110000   1.0011e+08    290.06626    92391.171    3596.6733   0.96344716    18.485326    3259.9923    3351.7613    4930.0521    2508.2065   -1786.3219    947.52381    1198.1933    290.09278 
100120000   1.0012e+08    287.46089    92391.171    5663.9156   0.96344716   -21.094564    3191.2973    5620.8362    5425.9572    5944.9534   -153.63852    394.38211    818.64862     287.4594 
100130000   1.0013e+08    294.58858    92391.171    3905.2809   0.96344716    38.363338    3330.4075    3707.5093    3557.7789    4450.5544   -930.16235   -118.03997    340.69865    294.62485 
100140000   1.0014e+08    297.64121    92391.171    3590.8931   0.96344716   -7.5535891    3318.6039    2898.9654      3905.27    3968.4438   -1678.9606   -225.89091   -323.78272    297.65905 
100150000   1.0015e+08    291.29711    92391.171    5535.3906   0.96344716    113.28631    3368.5481    5388.6878    5667.2638    5550.2202    26.087718    210.30585     399.6774    291.33067 
100160000   1.0016e+08     292.7268    92391.171    3019.2305   0.96344716    0.8580394    3272.0967    3255.5346    2659.1999     3142.957   -1017.4894   -2.1323796   -299.09672    292.72881 
100170000   1.0017e+08     301.6428    92391.171    5464.3604   0.96344716    15.936242    3386.8117    5307.2286    5150.2315     5935.621   -1352.5407   -921.86971   -374.26174    301.67319 
100180000   1.0018e+08      289.006    92391.171    4809.9945   0.96344716      30.2008    3259.8593    4421.4352     5043.526    4965.0224    -592.4851   -565.64741    95.582403    288.99094 
100190000   1.0019e+08    295.31952    92391.171    3145.3781   0.96344716   0.66871084    3300.8812    1994.1282    3938.2087    3503.7973   -2041.4763   -664.03835    360.47031    295.35118 
100200000    1.002e+08    297.04944    92391.171    4645.8322   0.96344716    8.9387931    3328.4832    3074.2969    5437.4476    5425.7521   -1253.4635      532.585   -1248.5262    297.05302 
100210000   1.0021e+08    293.10336    92391.171    5523.8959   0.96344716    103.66574    3379.1125     5096.479    5672.0589    5803.1497   -202.78585   -359.17204    636.08608    293.13183 
100220000   1.0022e+08    295.12234    92391.171    3866.5698   0.96344716   -2.0458457     3295.963    2368.7673    3709.3772     5521.565   -2713.3386    800.43294   -504.00118    295.13917 
100230000   1.0023e+08    289.11007    92391.171    5355.3571   0.96344716    77.383645    3308.2051    4689.6923     5555.333    5821.0458   -810.27901   -261.24225   -171.85538    289.10215 
100240000   1.0024e+08    290.21939    92391.171    4188.2144   0.96344716    50.018624    3293.2368    3563.5884    4659.1106    4341.9443   -1241.0393   -40.672734    121.97677    290.23583 
100250000   1.0025e+08    294.11608    92391.171    4852.9389   0.96344716    77.025301    3363.7892    4067.6753    4848.6812    5642.4601   -694.76606    2189.8699    383.71179    294.14376 
100260000   1.0026e+08    293.03604    92391.171      3883.53   0.96344716    126.00551    3400.6999    3614.0538    4129.8351    3906.7011   -785.60324    876.18167   -92.350966    293.06252 
100270000   1.0027e+08    291.24167    92391.171    4352.9636   0.96344716   -28.013706    3226.6285    3935.9514    5174.9535    3947.9858   -1963.9485    188.28102    488.52278    291.27893 
100280000   1.0028e+08    299.12702    92391.171    4235.6729   0.96344716    47.725206    3390.4866    4172.9429     4242.395     4291.681   -2716.3061   -352.46866   -1221.7992     299.1385 
100290000   1.0029e+08    298.28778    92391.171    4810.8112   0.96344716    5.7372662    3339.1202    4159.9853    5558.0935    4714.3549    45.244341    951.85254     -540.277    298.27455 
100300000    1.003e+08    295.63225    92391.171     4769.123   0.96344716   0.87188267     3304.579    4891.0671    5527.7753    3888.5266   -564.49229    322.71163   -414.95899    295.61765 
100310000   1.0031e+08    291.75837    92391.171     5123.052   0.96344716   -65.067515    3195.3489    4840.7722    6492.5905    4035.7933   -953.32351     108.2259   -1134.1159    291.72004 
100320000   1.0032e+08    294.19154    92391.171    4785.6266   0.96344716    7.0487107    3294.6559    4562.3031    5402.8685    4391.7083   -1485.0341   -418.23282    1831.0323    294.22647 
100330000   1.0033e+08    292.68213    92391.171    4891.1215   0.96344716    14.286692    3285.0262    5346.2829    4609.4439    4717.6378   -687.22869    411.58038   -27.224479     292.7067 
100340000   1.0034e+08    299.30341    92391.171    4574.2098   0.96344716    94.779183    3439.5118    4325.9786    5198.0545    4198.5961   -476.28994   -247.85367   -169.13413    299.30454 
100350000   1.0035e+08    297.57463    92391.171    4074.7579   0.96344716    41.673745    3367.0871    3886.3143    5389.5212    2948.4384   -693.79597     537.8583    -47.17094    297.59098 
100360000   1.0036e+08    294.05312    92391.171    3663.3364   0.96344716   -34.277416    3251.7829    2435.5529    5443.8658    3110.5904   -1738.6678    679.30948    296.93731     294.0969 
100370000   1.0037e+08    297.66965    92391.171    4718.3963   0.96344716    36.641891    3363.1171    4547.0773    5064.7261    4543.3855   -1601.9186   -241.30329   -744.79169    297.66092 
100380000   1.0038e+08    291.50617    92391.171    3703.5364   0.96344716    102.38784    3359.9859    3152.8407    4064.5366    3893.2319   -416.55674     415.7544    1117.4945    291.51954 
100390000   1.0039e+08    298.20627    92391.171    4475.5807   0.96344716   -28.388313    3304.0837    4637.8351    4512.4901    4276.4169   -1224.9743    -203.1051    499.23806    298.19936 
100400000    1.004e+08    285.89378    92391.171    4734.7696   0.96344716    79.940998    3274.8202    3920.4246    4429.8601     5854.024   -1149.7293    271.18935    -1170.888    285.90796 
100410000   1.0041e+08    297.25662    92391.171    4601.8224   0.96344716    54.855573    3376.7152    5486.0169    4506.8124     3812.638   -409.90021   -584.57234    897.29487    297.28509 
100420000   1.0042e+08    293.13235    92391.171    4589.2841   0.96344716    4.1405995    3279.9113    3307.2378     4677.595    5783.0194    66.489687    432.43988   -97.662799    293.12123 
100430000   1.0043e+08    295.79836    92391.171    4018.0811   0.96344716    68.799529    3374.3631    2943.9577    4863.3837    4246.9019   -1241.3103   -440.70891   -266.39502    295.78301 
100440000   1.0044e+08    290.67423    92391.171    4658.6334   0.96344716    49.119953     3297.421    3883.7361    4807.2843    5284.8798   -1119.1139   -112.87924   -1148.5429    290.66528 
100450000   1.0045e+08    300.76352    92391.171    4436.4655   0.96344716     40.06726    3401.1167    3738.1794    4534.4932    5036.7239   -1206.3234    974.95884   -495.68212    300.82209 
100460000   1.0046e+08    293.12913    92391.171    4382.4119   0.96344716   -21.016466    3254.7182    4004.4853    5074.6896    4068.0607   -1035.9389    830.41752     1513.835    293.11126 
100470000   1.0047e+08    295.90643    92391.171    5712.7536   0.96344716    29.139678    3335.9109    4811.6855    7180.3448    5146.2304   -352.40998    1225.0794    1964.2785    295.91527 
100480000   1.0048e+08    289.50529    92391.171    3739.3794   0.96344716   -53.728712    3181.5094    3768.2678     2360.176    5089.6944   -1715.2323    177.47124    51.425648    289.52368 
100490000   1.0049e+08     289.3839    92391.171    4938.1035   0.96344716     29.76288    3263.6444    5392.1135    5997.6504    3424.5465   -177.03638    -906.4052    372.42915    289.41889 
100500000    1.005e+08    287.58497    92391.171    3759.9227   0.96344716   -22.106875    3191.6715    1839.3859    4584.5142    4855.8681   -842.57295   -100.42838   -1152.5615    287.57427 
100510000   1.0051e+08     296.4984    92391.171    4969.1322   0.96344716    47.878902    3361.2654    5513.3772    4768.2419    4625.7776   -533.78315   -584.63965   -59.220551    296.49288 
100520000   1.0052e+08    291.52982    92391.171    4562.4394   0.96344716    52.823003    3310.6854     2879.736    5806.1416    5001.4407   -1371.7786    164.58023   -328.03071    291.53326 
100530000   1.0053e+08    298.09891    92391.171     4195.162   0.96344716    -67.99861    3263.2737     3704.482    4834.1139    4046.8902   -1166.0825    519.00632    388.02618    298.12634 
100540000   1.0054e+08     294.7585    92391.171    4933.9207   0.96344716   -73.934959    3220.0081    2879.7692    5862.9982    6058.9946   -1442.2837   -49.074075    890.64428    294.76968 
100550000   1.0055e+08    289.88023    92391.171    3928.2219   0.96344716   -33.228186    3206.1999    3227.4833    4040.6135     4516.569   -1713.8649   -243.77848    202.76396    289.90708 
100560000   1.0056e+08    292.44524    92391.171    5154.0077   0.96344716    35.107829       3303.2    3622.8107    7129.9447    4709.2678   -623.22346    192.91818    -200.9719    292.48283 
100570000   1.0057e+08    292.66066    92391.171    6964.1612   0.96344716    0.5772626    3271.0768    7369.5507    5911.9323    7611.0007   -932.05206    518.71565     309.2615    292.63679 
100580000   1.0058e+08    298.09723    92391.171    3860.9406   0.96344716   -42.052031    3289.2014     2612.611     3716.272    5253.9389   -1176.3092    657.98611    21.140196    298.09446 
100590000   1.0059e+08     295.5182    92391.171    5615.6731   0.96344716    21.578005    3324.0107    5250.3839    6484.0352       5112.6   -358.64714    418.54569    668.82732    295.50727 
100600000    1.006e+08    288.74862    92391.171    5501.5722   0.96344716    97.756169    3324.5384    5280.7837    6080.0902    5143.8428   -1684.9231    1496.8411   -606.39922    288.78869 
100610000   1.0061e+08    290.80458    92391.171    4634.6867   0.96344716    120.26069    3370.0184    4703.0439    5210.2241    3990.7922   -1189.4491   -62.377964   -311.31739    290.81345 
100620000   1.0062e+08    293.60095    92391.171     5418.072   0.96344716    35.046446    3316.0538    5218.5919    4828.6041      6207.02    -1828.975    997.61073    4.5889689    293.66266 
100630000   1.0063e+08    294.58546    92391.171    6159.7428   0.96344716    50.826661     3342.836    6531.7047    6857.3309    5090.1928   -1299.2895    91.514234   -442.04847    294.57851 
100640000   1.0064e+08    294.86179    92391.171    4545.4959   0.96344716    63.481984    3358.5792    3744.6995    5611.9299    4279.8585   -1813.8267     84.94093    111.29487    294.89275 
100650000   1.0065e+08    296.18075    92391.171    4149.3994   0.96344716    20.706393    3330.5431    3068.2543    4792.1409    4587.8029   -1215.6497   -7.8746893   -706.88403    296.17303 
100660000   1.0066e+08      287.511    92391.171    5959.1385   0.96344716   -4.1287309    3208.8231    5454.3569    6142.6227     6280.436   -976.56466    1072.3876    206.73971    287.51335 
100670000   1.0067e+08    287.79966    92391.171    4812.9863   0.96344716    45.979542    3262.1571    3209.0832    5214.9498    6014.9259   -685.59312   -59.576845   -157.68241    287.79912 
100680000   1.0068e+08    293.23902    92391.171    4797.8438   0.96344716   -48.335061    3228.6277    4133.6132    5206.1978    5053.7205    -45.98413    1226.0594    -567.8554    293.24844 
100690000   1.0069e+08    299.11186    92391.171    4908.7351   0.96344716    -67.46515    3275.1269    4386.6312    5333.5412    5006.0329   -1259.5283    -103.7444    -924.2267    299.13773 
100700000    1.007e+08     292.5044    92391.171    5526.9518   0.96344716   -22.477008    3246.2763    3606.0356    6758.2733    6216.5466   -1567.8109    748.34336   -595.78682    292.54387 
100710000   1.0071e+08    294.89553    92391.171    5463.8055   0.96344716    28.289852    3323.7641    5642.7395    5097.3348     5651.342   -938.65291    312.86563    1607.4478    294.90698 
100720000   1.0072e+08    293.51413    92391.171    4565.0716   0.96344716   -61.014046     3219.023    3952.1392    5150.0037    4593.0719   -677.77493    1379.7558    617.91602    293.54746 
100730000   1.0073e+08    293.87022    92391.171    6146.7599   0.96344716   -42.012515    3242.0039    6540.3079    6269.0365    5630.9352   -995.09293    592.57853    748.44914    293.91395 
100740000   1.0074e+08    292.19219    92391.171    4660.3403   0.96344716   -19.163475    3246.1008    4190.6345      4690.68    5099.7063   -170.05886    144.92692    166.29645    292.18407 
100750000   1.0075e+08    303.47047    92391.171    5229.6667   0.96344716    4.6600076    3395.9598    4956.7898    4096.3826    6635.8277   -1022.7235    1367.1408   -1422.6167      303.453 
100760000   1.0076e+08    286.10878    92391.171    5106.4141   0.96344716    10.447924    3207.7298    3102.4533    7048.6715    5168.1176   -1134.8854    726.85166   -654.82549     286.1034 
100770000   1.0077e+08    289.92755    92391.171       4526.2   0.96344716    40.880414    3280.8373    3440.5773    5183.1221    4954.9006   -1551.8399   -343.12611    549.97315    289.95641 
100780000   1.0078e+08    294.35312    92391.171    3952.3909   0.96344716    59.176526    3348.5894    1958.1398    4825.5276    5073.5055   -1578.7101    651.09903     -172.088    294.38589 
100790000   1.0079e+08    294.93189    92391.171    4227.4902   0.96344716   -41.718649     3254.162    2569.5598    5047.5896    5065.3213   -1808.7938   -439.92443    168.04518    294.96938 
100800000    1.008e+08    289.95971    92391.171    4584.6913   0.96344716    52.279741     3292.596     2620.982    5409.5266    5723.5653   -771.85143   -151.08297    673.32892    289.95866 
100810000   1.0081e+08    294.20831    92391.171    5110.4189   0.96344716   -49.056496    3238.7381    5484.0089    6025.2717     3821.976   -1228.7376   -754.75918   -521.77749    294.23257 
100820000   1.0082e+08    289.38709    92391.171    3513.6646   0.96344716     16.60714    3250.5244    3145.2898    2892.1184    4503.5856    -2303.028   -409.33547    142.40451    289.43514 
100830000   1.0083e+08    293.33466    92391.171    3862.1509   0.96344716   0.46259217    3278.4941    3663.4281     3346.601    4576.4236   -239.93827   -1446.2329    1008.7167    293.34712 
100840000   1.0084e+08    296.53926    92391.171    3961.8715   0.96344716    33.610388    3347.4535    2824.0314    4086.1174    4975.4658   -1899.9585   -404.32008    150.07479    296.52481 
100850000   1.0085e+08    291.36569    92391.171    4514.2291   0.96344716    68.738693    3324.7669    2735.0542    6225.4679    4582.1652   -1226.2707     900.9609    475.42958    291.40123 
100860000   1.0086e+08    288.10427    92391.171    5470.3852   0.96344716    21.404304    3240.9859    5513.5051    5471.9946    5425.6559    -303.6997   -1164.9275   -23.922147    288.14299 
100870000   1.0087e+08    290.23148    92391.171    4319.3052   0.96344716    8.1308309    3251.4842    3962.6373    4950.2608    4045.0175   -721.74349   -1034.7942    230.51469    290.25143 
100880000   1.0088e+08    290.19656    92391.171    5114.4958   0.96344716   -8.6740971     3234.289    3654.4219     5885.338    5803.7275   -2365.0525   -963.65174    217.37143    290.14604 
100890000   1.0089e+08    295.89007    92391.171    5423.9299   0.96344716    40.439627    3347.0279    4331.7911    4818.3767    7121.6219    -730.8377    321.44423    759.69827     295.9007 
100900000    1.009e+08    298.35266    92391.171    5087.3811   0.96344716    27.591583    3361.6995    4154.6999    5426.6149    5680.8286   -1015.1058    720.37187   -707.51895    298.39075 
100910000   1.0091e+08    292.20427    92391.171    6080.1771   0.96344716    59.015275    3324.4147    6556.0778    6524.3258    5160.1278    1000.3164     88.35014   -1297.5963    292.20297 
100920000   1.0092e+08     293.3963    92391.171    5806.7604   0.96344716   -36.2Generated thermo.dat
Done!
stress
average  950.181
square average  903852
number of blocks  100
variance  3.17500746298335494164
pxx
average  4211.65
square average  1.77427*10^07
number of blocks  100
variance  6.85877357841764594286
pyy
average  5154.34
square average  2.65703*10^07
number of blocks  100
variance  5.54902189579388846729
pzz
average  4830.71
square average  2.33386*10^07
number of blocks  100
variance  5.33000553470631960843
pressure, stress.strain, ktensor, virial are all concatenated
averages computed will all accumulated data until now
99085    3242.4213    4388.3709    5298.6427    7733.2675   -945.15483    254.48909    420.00071    293.40406 
100930000   1.0093e+08    290.24683    92391.171     4333.034   0.96344716   -23.676972    3219.8478    4515.9326    5085.9404    3397.2289   -1474.5317    35.339635    415.83303    290.27273 
100940000   1.0094e+08    292.61615    92391.171    5440.6151   0.96344716     98.38101    3368.3831    4984.1234    5424.2536    5913.4682   -978.64683   -795.93953   -853.89701    292.62265 
100950000   1.0095e+08    289.85836    92391.171    3698.2611   0.96344716    16.985085    3256.1688     3234.042    4602.6798    3258.0614   -256.56462     158.0766    297.51957    289.86164 
100960000   1.0096e+08    292.91494    92391.171    4321.1559   0.96344716    30.373785    3303.7149    4389.6344    4266.4441    4307.3893    83.954073   -432.38421   -1294.3873    292.91101 
100970000   1.0097e+08    296.07932    92391.171    4742.7181   0.96344716    12.600088    3321.3033    5851.5693    4599.5241    3777.0609   -211.13495   -71.442318   -343.40702    296.10724 
100980000   1.0098e+08    291.80878    92391.171    4524.9726   0.96344716    -52.25583    3208.7239    2780.5218    5103.4315    5690.9646   -881.66112     239.4069    922.77091    291.81977 
100990000   1.0099e+08    293.61544    92391.171    4591.8645   0.96344716     12.94618    3294.1154    4124.5198    5159.8187    4491.2552   -1082.6777   -117.38279    705.32462     293.6279 
101000000     1.01e+08    298.30874    92391.171    4897.4615   0.96344716    78.583527    3412.2007    4613.3007    4487.6239      5591.46   -2045.8078   -421.21735    -394.4856    298.31299 
Loop time of 15321 on 48 procs for 50000000 steps with 3750 atoms

Pair  time (%) = 5593.14 (36.5064)
Bond  time (%) = 969.994 (6.33115)
Neigh time (%) = 2802.9 (18.2946)
Comm  time (%) = 4295.39 (28.0361)
Outpt time (%) = 0.459604 (0.00299984)
Other time (%) = 1659.07 (10.8288)

Nlocal:    78.125 ave 88 max 65 min
Histogram: 2 0 1 8 5 8 11 7 2 4
Nghost:    1394.38 ave 1432 max 1364 min
Histogram: 2 2 6 11 12 6 2 5 0 2
Neighs:    6990.71 ave 7939 max 5477 min
Histogram: 1 1 2 3 5 10 11 8 3 4

Total # of neighbors = 335554
Ave neighs/atom = 89.4811
Ave special neighs/atom = 6.26667
Neighbor list builds = 5403593
Dangerous builds = 0
System init for write_restart ...

real	516m0.322s
user	0m0.074s
sys	0m0.285s
